
     Program PWSCF v.5.1.1 starts on 12Aug2015 at 17:25: 7 

     This program is part of the open-source Quantum ESPRESSO suite
     for quantum simulation of materials; please cite
         "P. Giannozzi et al., J. Phys.:Condens. Matter 21 395502 (2009);
          URL http://www.quantum-espresso.org", 
     in publications or presentations arising from this work. More details at
     http://www.quantum-espresso.org/quote

     Parallel version (MPI & OpenMP), running on      20 processor cores
     Number of MPI processes:                20
     Threads/MPI process:                     1
     R & G space division:  proc/nbgrp/npool/nimage =      20
     Waiting for input...
     Reading input from standard input

     Current dimensions of program PWSCF are:
     Max number of different atomic species (ntypx) = 10
     Max number of k-points (npk) =  40000
     Max angular momentum in pseudopotentials (lmaxx) =  3
               file H.pbe-mt_fhi.UPF: wavefunction(s)  2p 4f renormalized
               file Cl.pbe-mt_fhi.UPF: wavefunction(s)  4f renormalized
               file C.pbe-mt_fhi.UPF: wavefunction(s)  4f renormalized

     gamma-point specific algorithms are used

     Subspace diagonalization in iterative solution of the eigenvalue problem:
     scalapack distributed-memory algorithm (size of sub-group:  3*  3 procs)

 
     Parallelization info
     --------------------
     sticks:   dense  smooth     PW     G-vecs:    dense   smooth      PW
     Min         453     453    111                32630    32630    4063
     Max         456     456    114                32640    32640    4074
     Sum        9085    9085   2253               652671   652671   81313
     Tot        4543    4543   1127
 
     Generating pointlists ...
     new r_m :   0.0450 (alat units)  0.8506 (a.u.) for type    1
     new r_m :   0.1271 (alat units)  2.4011 (a.u.) for type    2
     new r_m :   0.0450 (alat units)  0.8506 (a.u.) for type    3


     bravais-lattice index     =            1
     lattice parameter (alat)  =      18.8973  a.u.
     unit-cell volume          =    6748.3346 (a.u.)^3
     number of atoms/cell      =           13
     number of atomic types    =            3
     number of electrons       =        38.00 (up:  19.00, down:  19.00)
     number of Kohn-Sham states=           19
     kinetic-energy cutoff     =      80.0000  Ry
     charge density cutoff     =     320.0000  Ry
     convergence threshold     =      1.0E-08
     mixing beta               =       0.3000
     number of iterations used =            8  plain     mixing
     Exchange-correlation      = PBE ( 1  4  3  4 0 0)

     celldm(1)=  18.897261  celldm(2)=   0.000000  celldm(3)=   0.000000
     celldm(4)=   0.000000  celldm(5)=   0.000000  celldm(6)=   0.000000

     crystal axes: (cart. coord. in units of alat)
               a(1) = (   1.000000   0.000000   0.000000 )  
               a(2) = (   0.000000   1.000000   0.000000 )  
               a(3) = (   0.000000   0.000000   1.000000 )  

     reciprocal axes: (cart. coord. in units 2 pi/alat)
               b(1) = (  1.000000  0.000000  0.000000 )  
               b(2) = (  0.000000  1.000000  0.000000 )  
               b(3) = (  0.000000  0.000000  1.000000 )  


     PseudoPot. # 1 for  H read from file:
     ../../../../pseudo/H.pbe-mt_fhi.UPF
     MD5 check sum: a19bd5488733b3d98581df861506e80d
     Pseudo is Norm-conserving, Zval =  1.0
     Generated using FHI98PP, converted with fhi2upf.x v.5.0.2
     Using radial grid of  387 points,  3 beta functions with: 
                l(1) =   0
                l(2) =   1
                l(3) =   3

     PseudoPot. # 2 for Cl read from file:
     ../../../../pseudo/Cl.pbe-mt_fhi.UPF
     MD5 check sum: 2690b95bbfe21454a1a3af22474751ef
     Pseudo is Norm-conserving, Zval =  7.0
     Generated using FHI98PP, converted with fhi2upf.x v.5.0.2
     Using radial grid of  503 points,  3 beta functions with: 
                l(1) =   0
                l(2) =   1
                l(3) =   3

     PseudoPot. # 3 for  C read from file:
     ../../../../pseudo/C.pbe-mt_fhi.UPF
     MD5 check sum: 058ca341f9d6d5327d9962fd88a91b65
     Pseudo is Norm-conserving, Zval =  4.0
     Generated using FHI98PP, converted with fhi2upf.x v.5.0.2
     Using radial grid of  461 points,  3 beta functions with: 
                l(1) =   0
                l(2) =   1
                l(3) =   3

     atomic species   valence    mass     pseudopotential
        H              1.00     1.00794      H( 1.00)
        Cl             7.00    35.45270     Cl( 1.00)
        C              4.00    12.01070      C( 1.00)

     Starting magnetic structure 
     atomic species   magnetization
        H            0.000
        Cl           0.000
        C            0.000

     No symmetry found


                                    s                        frac. trans.

      isym =  1     identity                                     

 cryst.   s( 1) = (     1          0          0      )
                  (     0          1          0      )
                  (     0          0          1      )

 cart.    s( 1) = (  1.0000000  0.0000000  0.0000000 )
                  (  0.0000000  1.0000000  0.0000000 )
                  (  0.0000000  0.0000000  1.0000000 )


     point group C_1 (1)    
     there are  1 classes
     the character table:

       E    
A      1.00

     the symmetry operations in each class:
     E        1

   Cartesian axes

     site n.     atom                  positions (alat units)
         1           C   tau(   1) = (   0.1397166   0.0000000   0.0000000  )
         2           C   tau(   2) = (   0.0698726   0.1210346   0.0000000  )
         3           C   tau(   3) = (  -0.0698726   0.1210346   0.0000000  )
         4           C   tau(   4) = (  -0.1397166   0.0000000   0.0000000  )
         5           C   tau(   5) = (  -0.0698726  -0.1210346   0.0000000  )
         6           C   tau(   6) = (   0.0698726  -0.1210346   0.0000000  )
         7           H   tau(   7) = (   0.2488391   0.0000000   0.0000000  )
         8           H   tau(   8) = (   0.1244646   0.2155141   0.0000000  )
         9           H   tau(   9) = (  -0.1244647   0.2155141   0.0000000  )
        10           H   tau(  10) = (  -0.2488391   0.0000000   0.0000000  )
        11           H   tau(  11) = (  -0.1244646  -0.2155141   0.0000000  )
        12           H   tau(  12) = (   0.1244646  -0.2155141   0.0000000  )
        13           Cl  tau(  13) = (   0.0000000   0.1210346   0.3000000  )

   Crystallographic axes

     site n.     atom                  positions (cryst. coord.)
         1           C   tau(   1) = (  0.1397166  0.0000000  0.0000000  )
         2           C   tau(   2) = (  0.0698726  0.1210346  0.0000000  )
         3           C   tau(   3) = ( -0.0698726  0.1210346  0.0000000  )
         4           C   tau(   4) = ( -0.1397166  0.0000000  0.0000000  )
         5           C   tau(   5) = ( -0.0698726 -0.1210346  0.0000000  )
         6           C   tau(   6) = (  0.0698726 -0.1210346  0.0000000  )
         7           H   tau(   7) = (  0.2488391  0.0000000  0.0000000  )
         8           H   tau(   8) = (  0.1244646  0.2155141  0.0000000  )
         9           H   tau(   9) = ( -0.1244647  0.2155141  0.0000000  )
        10           H   tau(  10) = ( -0.2488391  0.0000000  0.0000000  )
        11           H   tau(  11) = ( -0.1244646 -0.2155141  0.0000000  )
        12           H   tau(  12) = (  0.1244646 -0.2155141  0.0000000  )
        13           Cl  tau(  13) = (  0.0000000  0.1210346  0.3000000  )

     number of k points=     2
                       cart. coord. in units 2pi/alat
        k(    1) = (   0.0000000   0.0000000   0.0000000), wk =   1.0000000
        k(    2) = (   0.0000000   0.0000000   0.0000000), wk =   1.0000000

                       cryst. coord.
        k(    1) = (   0.0000000   0.0000000   0.0000000), wk =   1.0000000
        k(    2) = (   0.0000000   0.0000000   0.0000000), wk =   1.0000000

     Dense  grid:   326336 G-vectors     FFT dimensions: ( 108, 108, 108)

     Largest allocated arrays     est. size (Mb)     dimensions
        Kohn-Sham Wavefunctions         0.59 Mb     (    2034,   19)
        NL pseudopotentials             4.44 Mb     (    2034,  143)
        Each V/rho on FFT grid          2.14 Mb     (   69984,   2)
        Each G-vector array             0.12 Mb     (   16317)
        G-vector shells                 0.02 Mb     (    2079)
     Largest temporary arrays     est. size (Mb)     dimensions
        Auxiliary wavefunctions         1.18 Mb     (    2034,   76)
        Each subspace H/S matrix        0.00 Mb     (      25,   25)
        Each <psi_i|beta_j> matrix      0.02 Mb     (     143,   19)
        Arrays for rho mixing           8.54 Mb     (   69984,    8)
 
     Using Hirshfeld
        Amplitude [Ry a.u.] :  1.0608E-01
        Acceptor Fragment start :          13
        Acceptor Fragment end   :          13
 

     Initial potential from superposition of free atoms

     starting charge   36.99968, renormalised to   38.00000

     negative rho (up, down):  2.424E-05 2.424E-05
     Starting wfc are  208 randomized atomic wfcs

     total cpu time spent up to now is       54.6 secs

     Self-consistent Calculation

     iteration #  1     ecut=    80.00 Ry     beta=0.30
     Davidson diagonalization with overlap
     ethr =  1.00E-02,  avg # of iterations =  2.0

     negative rho (up, down):  1.299E-05 1.316E-05
 
     Magnetic moment per site:
     atom:    1    charge:    0.8391    magn:   -0.0001    constr:    0.0000
     atom:    2    charge:    0.8417    magn:    0.0000    constr:    0.0000
     atom:    3    charge:    0.8418    magn:    0.0000    constr:    0.0000
     atom:    4    charge:    0.8391    magn:    0.0001    constr:    0.0000
     atom:    5    charge:    0.8432    magn:   -0.0001    constr:    0.0000
     atom:    6    charge:    0.8435    magn:    0.0000    constr:    0.0000
     atom:    7    charge:    0.4119    magn:    0.0000    constr:    0.0000
     atom:    8    charge:    0.4128    magn:    0.0000    constr:    0.0000
     atom:    9    charge:    0.4128    magn:    0.0000    constr:    0.0000
     atom:   10    charge:    0.4119    magn:    0.0000    constr:    0.0000
     atom:   11    charge:    0.4130    magn:    0.0000    constr:    0.0000
     atom:   12    charge:    0.4130    magn:    0.0000    constr:    0.0000
     atom:   13    charge:    6.4930    magn:    0.0001    constr:    0.0000

     total cpu time spent up to now is       76.9 secs

     The total energy is the sum of the following terms:

     one-electron contribution =    -313.85038447 Ry
     hartree contribution      =     159.49977121 Ry
     xc contribution           =     -30.56872159 Ry
     ewald contribution        =      74.47044433 Ry

     total energy              =    -103.36116426 Ry
     Harris-Foulkes estimate   =    -103.63176056 Ry
     estimated scf accuracy    <       0.86113132 Ry

     total magnetization       =     0.00 Bohr mag/cell
     absolute magnetization    =     0.01 Bohr mag/cell

     iteration #  2     ecut=    80.00 Ry     beta=0.30
     Davidson diagonalization with overlap
     ethr =  2.27E-03,  avg # of iterations =  2.0

     negative rho (up, down):  3.370E-06 3.348E-06
 
     Magnetic moment per site:
     atom:    1    charge:    0.8632    magn:   -0.0001    constr:    0.0000
     atom:    2    charge:    0.8651    magn:    0.0000    constr:    0.0000
     atom:    3    charge:    0.8652    magn:   -0.0001    constr:    0.0000
     atom:    4    charge:    0.8633    magn:    0.0002    constr:    0.0000
     atom:    5    charge:    0.8677    magn:   -0.0001    constr:    0.0000
     atom:    6    charge:    0.8680    magn:    0.0000    constr:    0.0000
     atom:    7    charge:    0.4605    magn:    0.0000    constr:    0.0000
     atom:    8    charge:    0.4612    magn:    0.0000    constr:    0.0000
     atom:    9    charge:    0.4611    magn:    0.0000    constr:    0.0000
     atom:   10    charge:    0.4605    magn:    0.0000    constr:    0.0000
     atom:   11    charge:    0.4618    magn:    0.0000    constr:    0.0000
     atom:   12    charge:    0.4618    magn:    0.0000    constr:    0.0000
     atom:   13    charge:    6.6113    magn:    0.0001    constr:    0.0000

     total cpu time spent up to now is       80.1 secs

     The total energy is the sum of the following terms:

     one-electron contribution =    -310.69958597 Ry
     hartree contribution      =     162.35982574 Ry
     xc contribution           =     -31.19733746 Ry
     ewald contribution        =      74.47044433 Ry

     total energy              =    -103.29716021 Ry
     Harris-Foulkes estimate   =    -103.40314605 Ry
     estimated scf accuracy    <       0.25869425 Ry

     total magnetization       =     0.00 Bohr mag/cell
     absolute magnetization    =     0.00 Bohr mag/cell

     iteration #  3     ecut=    80.00 Ry     beta=0.30
     Davidson diagonalization with overlap
     ethr =  6.81E-04,  avg # of iterations =  2.0

     negative rho (up, down):  5.989E-07 5.883E-07
 
     Magnetic moment per site:
     atom:    1    charge:    0.8543    magn:   -0.0001    constr:    0.0000
     atom:    2    charge:    0.8564    magn:    0.0000    constr:    0.0000
     atom:    3    charge:    0.8564    magn:   -0.0001    constr:    0.0000
     atom:    4    charge:    0.8543    magn:    0.0001    constr:    0.0000
     atom:    5    charge:    0.8589    magn:   -0.0001    constr:    0.0000
     atom:    6    charge:    0.8590    magn:    0.0000    constr:    0.0000
     atom:    7    charge:    0.4851    magn:    0.0000    constr:    0.0000
     atom:    8    charge:    0.4851    magn:    0.0000    constr:    0.0000
     atom:    9    charge:    0.4851    magn:    0.0000    constr:    0.0000
     atom:   10    charge:    0.4851    magn:    0.0000    constr:    0.0000
     atom:   11    charge:    0.4865    magn:    0.0000    constr:    0.0000
     atom:   12    charge:    0.4865    magn:    0.0000    constr:    0.0000
     atom:   13    charge:    6.6001    magn:    0.0001    constr:    0.0000

     total cpu time spent up to now is       89.7 secs

     The total energy is the sum of the following terms:

     one-electron contribution =    -307.62999215 Ry
     hartree contribution      =     161.70425540 Ry
     xc contribution           =     -31.23083660 Ry
     ewald contribution        =      74.47044433 Ry

     total energy              =    -103.31236033 Ry
     Harris-Foulkes estimate   =    -103.32591282 Ry
     estimated scf accuracy    <       0.03780284 Ry

     total magnetization       =     0.00 Bohr mag/cell
     absolute magnetization    =     0.00 Bohr mag/cell

     iteration #  4     ecut=    80.00 Ry     beta=0.30
     Davidson diagonalization with overlap
     ethr =  9.95E-05,  avg # of iterations =  2.0

     negative rho (up, down):  2.702E-08 2.631E-08
 
     Magnetic moment per site:
     atom:    1    charge:    0.8544    magn:   -0.0001    constr:    0.0000
     atom:    2    charge:    0.8565    magn:    0.0000    constr:    0.0000
     atom:    3    charge:    0.8565    magn:   -0.0001    constr:    0.0000
     atom:    4    charge:    0.8544    magn:    0.0001    constr:    0.0000
     atom:    5    charge:    0.8590    magn:    0.0000    constr:    0.0000
     atom:    6    charge:    0.8590    magn:    0.0000    constr:    0.0000
     atom:    7    charge:    0.4966    magn:    0.0000    constr:    0.0000
     atom:    8    charge:    0.4965    magn:    0.0000    constr:    0.0000
     atom:    9    charge:    0.4965    magn:    0.0000    constr:    0.0000
     atom:   10    charge:    0.4967    magn:    0.0000    constr:    0.0000
     atom:   11    charge:    0.4981    magn:    0.0000    constr:    0.0000
     atom:   12    charge:    0.4981    magn:    0.0000    constr:    0.0000
     atom:   13    charge:    6.6094    magn:    0.0000    constr:    0.0000

     total cpu time spent up to now is       90.3 secs

     The total energy is the sum of the following terms:

     one-electron contribution =    -308.78389459 Ry
     hartree contribution      =     162.00539645 Ry
     xc contribution           =     -31.32795239 Ry
     ewald contribution        =      74.47044433 Ry

     total energy              =    -103.31473681 Ry
     Harris-Foulkes estimate   =    -103.31626275 Ry
     estimated scf accuracy    <       0.00550681 Ry

     total magnetization       =     0.00 Bohr mag/cell
     absolute magnetization    =     0.00 Bohr mag/cell

     iteration #  5     ecut=    80.00 Ry     beta=0.30
     Davidson diagonalization with overlap
     ethr =  1.45E-05,  avg # of iterations =  2.0
 
     Magnetic moment per site:
     atom:    1    charge:    0.8538    magn:    0.0000    constr:    0.0000
     atom:    2    charge:    0.8557    magn:    0.0000    constr:    0.0000
     atom:    3    charge:    0.8557    magn:   -0.0001    constr:    0.0000
     atom:    4    charge:    0.8538    magn:    0.0001    constr:    0.0000
     atom:    5    charge:    0.8582    magn:    0.0000    constr:    0.0000
     atom:    6    charge:    0.8582    magn:    0.0000    constr:    0.0000
     atom:    7    charge:    0.4972    magn:    0.0000    constr:    0.0000
     atom:    8    charge:    0.4971    magn:    0.0000    constr:    0.0000
     atom:    9    charge:    0.4971    magn:    0.0000    constr:    0.0000
     atom:   10    charge:    0.4972    magn:    0.0000    constr:    0.0000
     atom:   11    charge:    0.4986    magn:    0.0000    constr:    0.0000
     atom:   12    charge:    0.4986    magn:    0.0000    constr:    0.0000
     atom:   13    charge:    6.6076    magn:    0.0000    constr:    0.0000

     total cpu time spent up to now is       90.8 secs

     The total energy is the sum of the following terms:

     one-electron contribution =    -308.62415090 Ry
     hartree contribution      =     162.11522979 Ry
     xc contribution           =     -31.33696890 Ry
     ewald contribution        =      74.47044433 Ry

     total energy              =    -103.31486983 Ry
     Harris-Foulkes estimate   =    -103.31510451 Ry
     estimated scf accuracy    <       0.00057049 Ry

     total magnetization       =     0.00 Bohr mag/cell
     absolute magnetization    =     0.00 Bohr mag/cell

     iteration #  6     ecut=    80.00 Ry     beta=0.30
     Davidson diagonalization with overlap
     ethr =  1.50E-06,  avg # of iterations =  3.0
 
     Magnetic moment per site:
     atom:    1    charge:    0.8527    magn:    0.0000    constr:    0.0000
     atom:    2    charge:    0.8548    magn:    0.0000    constr:    0.0000
     atom:    3    charge:    0.8548    magn:   -0.0001    constr:    0.0000
     atom:    4    charge:    0.8527    magn:    0.0001    constr:    0.0000
     atom:    5    charge:    0.8571    magn:    0.0000    constr:    0.0000
     atom:    6    charge:    0.8571    magn:    0.0000    constr:    0.0000
     atom:    7    charge:    0.4978    magn:    0.0000    constr:    0.0000
     atom:    8    charge:    0.4977    magn:    0.0000    constr:    0.0000
     atom:    9    charge:    0.4977    magn:    0.0000    constr:    0.0000
     atom:   10    charge:    0.4978    magn:    0.0000    constr:    0.0000
     atom:   11    charge:    0.4992    magn:    0.0000    constr:    0.0000
     atom:   12    charge:    0.4992    magn:    0.0000    constr:    0.0000
     atom:   13    charge:    6.6048    magn:    0.0000    constr:    0.0000

     total cpu time spent up to now is       91.5 secs

     The total energy is the sum of the following terms:

     one-electron contribution =    -308.41010151 Ry
     hartree contribution      =     162.03279293 Ry
     xc contribution           =     -31.32965208 Ry
     ewald contribution        =      74.47044433 Ry

     total energy              =    -103.31500801 Ry
     Harris-Foulkes estimate   =    -103.31505220 Ry
     estimated scf accuracy    <       0.00010363 Ry

     total magnetization       =     0.00 Bohr mag/cell
     absolute magnetization    =     0.00 Bohr mag/cell

     iteration #  7     ecut=    80.00 Ry     beta=0.30
     Davidson diagonalization with overlap
     ethr =  2.73E-07,  avg # of iterations =  3.0
 
     Magnetic moment per site:
     atom:    1    charge:    0.8525    magn:    0.0000    constr:    0.0000
     atom:    2    charge:    0.8547    magn:    0.0000    constr:    0.0000
     atom:    3    charge:    0.8547    magn:    0.0000    constr:    0.0000
     atom:    4    charge:    0.8525    magn:    0.0001    constr:    0.0000
     atom:    5    charge:    0.8569    magn:    0.0000    constr:    0.0000
     atom:    6    charge:    0.8569    magn:    0.0000    constr:    0.0000
     atom:    7    charge:    0.4977    magn:    0.0000    constr:    0.0000
     atom:    8    charge:    0.4976    magn:    0.0000    constr:    0.0000
     atom:    9    charge:    0.4976    magn:    0.0000    constr:    0.0000
     atom:   10    charge:    0.4977    magn:    0.0000    constr:    0.0000
     atom:   11    charge:    0.4991    magn:    0.0000    constr:    0.0000
     atom:   12    charge:    0.4991    magn:    0.0000    constr:    0.0000
     atom:   13    charge:    6.6044    magn:    0.0000    constr:    0.0000

     total cpu time spent up to now is       92.1 secs

     The total energy is the sum of the following terms:

     one-electron contribution =    -308.52544574 Ry
     hartree contribution      =     162.04491889 Ry
     xc contribution           =     -31.33039200 Ry
     ewald contribution        =      74.47044433 Ry

     total energy              =    -103.31503610 Ry
     Harris-Foulkes estimate   =    -103.31503928 Ry
     estimated scf accuracy    <       0.00001429 Ry

     total magnetization       =     0.00 Bohr mag/cell
     absolute magnetization    =     0.00 Bohr mag/cell

     iteration #  8     ecut=    80.00 Ry     beta=0.30
     Davidson diagonalization with overlap
     ethr =  3.76E-08,  avg # of iterations =  2.0
 
     Magnetic moment per site:
     atom:    1    charge:    0.8524    magn:    0.0000    constr:    0.0000
     atom:    2    charge:    0.8547    magn:    0.0000    constr:    0.0000
     atom:    3    charge:    0.8547    magn:    0.0000    constr:    0.0000
     atom:    4    charge:    0.8524    magn:    0.0000    constr:    0.0000
     atom:    5    charge:    0.8568    magn:    0.0000    constr:    0.0000
     atom:    6    charge:    0.8568    magn:    0.0000    constr:    0.0000
     atom:    7    charge:    0.4977    magn:    0.0000    constr:    0.0000
     atom:    8    charge:    0.4976    magn:    0.0000    constr:    0.0000
     atom:    9    charge:    0.4976    magn:    0.0000    constr:    0.0000
     atom:   10    charge:    0.4977    magn:    0.0000    constr:    0.0000
     atom:   11    charge:    0.4990    magn:    0.0000    constr:    0.0000
     atom:   12    charge:    0.4990    magn:    0.0000    constr:    0.0000
     atom:   13    charge:    6.6036    magn:    0.0000    constr:    0.0000

     total cpu time spent up to now is       92.7 secs

     The total energy is the sum of the following terms:

     one-electron contribution =    -308.50017605 Ry
     hartree contribution      =     162.04021562 Ry
     xc contribution           =     -31.32991848 Ry
     ewald contribution        =      74.47044433 Ry

     total energy              =    -103.31503845 Ry
     Harris-Foulkes estimate   =    -103.31503858 Ry
     estimated scf accuracy    <       0.00000139 Ry

     total magnetization       =     0.00 Bohr mag/cell
     absolute magnetization    =     0.00 Bohr mag/cell

     iteration #  9     ecut=    80.00 Ry     beta=0.30
     Davidson diagonalization with overlap
     ethr =  3.66E-09,  avg # of iterations =  4.0
 
     Magnetic moment per site:
     atom:    1    charge:    0.8525    magn:    0.0000    constr:    0.0000
     atom:    2    charge:    0.8547    magn:    0.0000    constr:    0.0000
     atom:    3    charge:    0.8547    magn:    0.0000    constr:    0.0000
     atom:    4    charge:    0.8525    magn:    0.0000    constr:    0.0000
     atom:    5    charge:    0.8568    magn:    0.0000    constr:    0.0000
     atom:    6    charge:    0.8568    magn:    0.0000    constr:    0.0000
     atom:    7    charge:    0.4977    magn:    0.0000    constr:    0.0000
     atom:    8    charge:    0.4976    magn:    0.0000    constr:    0.0000
     atom:    9    charge:    0.4976    magn:    0.0000    constr:    0.0000
     atom:   10    charge:    0.4977    magn:    0.0000    constr:    0.0000
     atom:   11    charge:    0.4990    magn:    0.0000    constr:    0.0000
     atom:   12    charge:    0.4990    magn:    0.0000    constr:    0.0000
     atom:   13    charge:    6.6037    magn:    0.0000    constr:    0.0000

     total cpu time spent up to now is       93.5 secs

     The total energy is the sum of the following terms:

     one-electron contribution =    -308.50650291 Ry
     hartree contribution      =     162.04634420 Ry
     xc contribution           =     -31.33051480 Ry
     ewald contribution        =      74.47044433 Ry

     total energy              =    -103.31503853 Ry
     Harris-Foulkes estimate   =    -103.31503880 Ry
     estimated scf accuracy    <       0.00000050 Ry

     total magnetization       =     0.00 Bohr mag/cell
     absolute magnetization    =     0.00 Bohr mag/cell

     iteration # 10     ecut=    80.00 Ry     beta=0.30
     Davidson diagonalization with overlap
     ethr =  1.30E-09,  avg # of iterations =  2.0
 
     Magnetic moment per site:
     atom:    1    charge:    0.8525    magn:    0.0000    constr:    0.0000
     atom:    2    charge:    0.8547    magn:    0.0000    constr:    0.0000
     atom:    3    charge:    0.8547    magn:    0.0000    constr:    0.0000
     atom:    4    charge:    0.8525    magn:    0.0000    constr:    0.0000
     atom:    5    charge:    0.8568    magn:    0.0000    constr:    0.0000
     atom:    6    charge:    0.8568    magn:    0.0000    constr:    0.0000
     atom:    7    charge:    0.4977    magn:    0.0000    constr:    0.0000
     atom:    8    charge:    0.4976    magn:    0.0000    constr:    0.0000
     atom:    9    charge:    0.4976    magn:    0.0000    constr:    0.0000
     atom:   10    charge:    0.4977    magn:    0.0000    constr:    0.0000
     atom:   11    charge:    0.4990    magn:    0.0000    constr:    0.0000
     atom:   12    charge:    0.4990    magn:    0.0000    constr:    0.0000
     atom:   13    charge:    6.6036    magn:    0.0000    constr:    0.0000

     total cpu time spent up to now is       94.1 secs

     The total energy is the sum of the following terms:

     one-electron contribution =    -308.49764024 Ry
     hartree contribution      =     162.04512638 Ry
     xc contribution           =     -31.33045742 Ry
     ewald contribution        =      74.47044433 Ry

     total energy              =    -103.31503866 Ry
     Harris-Foulkes estimate   =    -103.31503869 Ry
     estimated scf accuracy    <       0.00000007 Ry

     total magnetization       =     0.00 Bohr mag/cell
     absolute magnetization    =     0.00 Bohr mag/cell

     iteration # 11     ecut=    80.00 Ry     beta=0.30
     Davidson diagonalization with overlap
     ethr =  1.90E-10,  avg # of iterations =  2.0
 
     Magnetic moment per site:
     atom:    1    charge:    0.8525    magn:    0.0000    constr:    0.0000
     atom:    2    charge:    0.8547    magn:    0.0000    constr:    0.0000
     atom:    3    charge:    0.8547    magn:    0.0000    constr:    0.0000
     atom:    4    charge:    0.8525    magn:    0.0000    constr:    0.0000
     atom:    5    charge:    0.8568    magn:    0.0000    constr:    0.0000
     atom:    6    charge:    0.8568    magn:    0.0000    constr:    0.0000
     atom:    7    charge:    0.4977    magn:    0.0000    constr:    0.0000
     atom:    8    charge:    0.4976    magn:    0.0000    constr:    0.0000
     atom:    9    charge:    0.4976    magn:    0.0000    constr:    0.0000
     atom:   10    charge:    0.4977    magn:    0.0000    constr:    0.0000
     atom:   11    charge:    0.4990    magn:    0.0000    constr:    0.0000
     atom:   12    charge:    0.4990    magn:    0.0000    constr:    0.0000
     atom:   13    charge:    6.6036    magn:    0.0000    constr:    0.0000

     total cpu time spent up to now is       94.7 secs

     End of self-consistent calculation

 ------ SPIN UP ------------


          k = 0.0000 0.0000 0.0000 ( 40657 PWs)   bands (ev):

   -18.6706 -15.9305 -15.9278 -15.2208 -12.3650 -12.3633 -10.4782  -8.8194
    -8.4578  -7.8373  -7.8176  -6.5751  -5.8729  -5.8508  -4.1789  -4.0350
    -3.6464  -3.4659  -3.0907

     occupation numbers 
     1.0000   1.0000   1.0000   1.0000   1.0000   1.0000   1.0000   1.0000
     1.0000   1.0000   1.0000   1.0000   1.0000   1.0000   1.0000   1.0000
     1.0000   1.0000   1.0000

 ------ SPIN DOWN ----------


          k = 0.0000 0.0000 0.0000 ( 40657 PWs)   bands (ev):

   -18.6706 -15.9305 -15.9278 -15.2208 -12.3650 -12.3633 -10.4783  -8.8194
    -8.4578  -7.8373  -7.8176  -6.5751  -5.8729  -5.8508  -4.1789  -4.0350
    -3.6464  -3.4658  -3.0907

     occupation numbers 
     1.0000   1.0000   1.0000   1.0000   1.0000   1.0000   1.0000   1.0000
     1.0000   1.0000   1.0000   1.0000   1.0000   1.0000   1.0000   1.0000
     1.0000   1.0000   1.0000

     highest occupied level (ev):    -3.0907

     The total energy is the sum of the following terms:

     one-electron contribution =    -308.49961516 Ry
     hartree contribution      =     162.04457276 Ry
     xc contribution           =     -31.33044059 Ry
     ewald contribution        =      74.47044433 Ry

!    total energy              =    -103.31503866 Ry
     Harris-Foulkes estimate   =    -103.31503867 Ry
     estimated scf accuracy    <          4.2E-09 Ry

     The total energy is the sum of the following terms:

     one-electron contribution =    -308.49961516 Ry
     hartree contribution      =     162.04457276 Ry
     xc contribution           =     -31.33044059 Ry
     ewald contribution        =      74.47044433 Ry

     total magnetization       =     0.00 Bohr mag/cell
     absolute magnetization    =     0.00 Bohr mag/cell

     convergence has been achieved in  11 iterations
 
     Using Hirshfeld
        Amplitude [Ry a.u.] :  1.0608E-01
        Acceptor Fragment start :          13
        Acceptor Fragment end   :          13
 
     E field correction :   -2.36170075282166       Ry
     Total charge in well     :  -0.736606779584200       Ha atomic units
     Surplus/deficit electrons    :   -0.263393220415800      electrons
     epcdft_thr                   :    1.000000000000000E-002 electrons
 
     -----------------------------------------------
 
                      SCF converged but...
 
     electron localization condition NOT satisfied
     restarting scf with different applied potential
 
     New field Amp      :   0.107080000000000       Ry
     charge density from previous step
 
     Using Hirshfeld
        Amplitude [Ry a.u.] :  1.0708E-01
        Acceptor Fragment start :          13
        Acceptor Fragment end   :          13
 

     total cpu time spent up to now is       99.1 secs

     Self-consistent Calculation

     iteration #  1     ecut=    80.00 Ry     beta=0.30
     Davidson diagonalization with overlap
     ethr =  1.90E-10,  avg # of iterations =  6.0
 
     Magnetic moment per site:
     atom:    1    charge:    0.8524    magn:    0.0000    constr:    0.0000
     atom:    2    charge:    0.8547    magn:    0.0000    constr:    0.0000
     atom:    3    charge:    0.8547    magn:    0.0000    constr:    0.0000
     atom:    4    charge:    0.8524    magn:    0.0000    constr:    0.0000
     atom:    5    charge:    0.8568    magn:    0.0000    constr:    0.0000
     atom:    6    charge:    0.8568    magn:    0.0000    constr:    0.0000
     atom:    7    charge:    0.4977    magn:    0.0000    constr:    0.0000
     atom:    8    charge:    0.4976    magn:    0.0000    constr:    0.0000
     atom:    9    charge:    0.4976    magn:    0.0000    constr:    0.0000
     atom:   10    charge:    0.4977    magn:    0.0000    constr:    0.0000
     atom:   11    charge:    0.4990    magn:    0.0000    constr:    0.0000
     atom:   12    charge:    0.4990    magn:    0.0000    constr:    0.0000
     atom:   13    charge:    6.6038    magn:    0.0000    constr:    0.0000

     total cpu time spent up to now is      103.5 secs

     The total energy is the sum of the following terms:

     one-electron contribution =    -308.47790512 Ry
     hartree contribution      =     162.04488972 Ry
     xc contribution           =     -31.33059172 Ry
     ewald contribution        =      74.47044433 Ry

     total energy              =    -103.29277577 Ry
     Harris-Foulkes estimate   =    -103.29277590 Ry
     estimated scf accuracy    <       0.00000032 Ry

     total magnetization       =     0.00 Bohr mag/cell
     absolute magnetization    =     0.00 Bohr mag/cell

     iteration #  2     ecut=    80.00 Ry     beta=0.30
     Davidson diagonalization with overlap
     ethr =  8.47E-10,  avg # of iterations =  2.0
 
     Magnetic moment per site:
     atom:    1    charge:    0.8524    magn:    0.0000    constr:    0.0000
     atom:    2    charge:    0.8547    magn:    0.0000    constr:    0.0000
     atom:    3    charge:    0.8547    magn:    0.0000    constr:    0.0000
     atom:    4    charge:    0.8524    magn:    0.0000    constr:    0.0000
     atom:    5    charge:    0.8568    magn:    0.0000    constr:    0.0000
     atom:    6    charge:    0.8568    magn:    0.0000    constr:    0.0000
     atom:    7    charge:    0.4977    magn:    0.0000    constr:    0.0000
     atom:    8    charge:    0.4976    magn:    0.0000    constr:    0.0000
     atom:    9    charge:    0.4976    magn:    0.0000    constr:    0.0000
     atom:   10    charge:    0.4977    magn:    0.0000    constr:    0.0000
     atom:   11    charge:    0.4990    magn:    0.0000    constr:    0.0000
     atom:   12    charge:    0.4990    magn:    0.0000    constr:    0.0000
     atom:   13    charge:    6.6039    magn:    0.0000    constr:    0.0000

     total cpu time spent up to now is      104.0 secs

     The total energy is the sum of the following terms:

     one-electron contribution =    -308.47715016 Ry
     hartree contribution      =     162.04478289 Ry
     xc contribution           =     -31.33063961 Ry
     ewald contribution        =      74.47044433 Ry

     total energy              =    -103.29277578 Ry
     Harris-Foulkes estimate   =    -103.29277580 Ry
     estimated scf accuracy    <       0.00000005 Ry

     total magnetization       =     0.00 Bohr mag/cell
     absolute magnetization    =     0.00 Bohr mag/cell

     iteration #  3     ecut=    80.00 Ry     beta=0.30
     Davidson diagonalization with overlap
     ethr =  1.29E-10,  avg # of iterations =  2.5
 
     Magnetic moment per site:
     atom:    1    charge:    0.8525    magn:    0.0000    constr:    0.0000
     atom:    2    charge:    0.8547    magn:    0.0000    constr:    0.0000
     atom:    3    charge:    0.8547    magn:    0.0000    constr:    0.0000
     atom:    4    charge:    0.8525    magn:    0.0000    constr:    0.0000
     atom:    5    charge:    0.8568    magn:    0.0000    constr:    0.0000
     atom:    6    charge:    0.8568    magn:    0.0000    constr:    0.0000
     atom:    7    charge:    0.4977    magn:    0.0000    constr:    0.0000
     atom:    8    charge:    0.4976    magn:    0.0000    constr:    0.0000
     atom:    9    charge:    0.4976    magn:    0.0000    constr:    0.0000
     atom:   10    charge:    0.4977    magn:    0.0000    constr:    0.0000
     atom:   11    charge:    0.4990    magn:    0.0000    constr:    0.0000
     atom:   12    charge:    0.4990    magn:    0.0000    constr:    0.0000
     atom:   13    charge:    6.6039    magn:    0.0000    constr:    0.0000

     total cpu time spent up to now is      104.6 secs

     End of self-consistent calculation

 ------ SPIN UP ------------


          k = 0.0000 0.0000 0.0000 ( 40657 PWs)   bands (ev):

   -18.6582 -15.9185 -15.9153 -15.2302 -12.3524 -12.3507 -10.4656  -8.8066
    -8.4453  -7.8247  -7.8049  -6.5635  -5.8603  -5.8381  -4.1746  -4.0311
    -3.6559  -3.4673  -3.0921

     occupation numbers 
     1.0000   1.0000   1.0000   1.0000   1.0000   1.0000   1.0000   1.0000
     1.0000   1.0000   1.0000   1.0000   1.0000   1.0000   1.0000   1.0000
     1.0000   1.0000   1.0000

 ------ SPIN DOWN ----------


          k = 0.0000 0.0000 0.0000 ( 40657 PWs)   bands (ev):

   -18.6582 -15.9185 -15.9153 -15.2302 -12.3524 -12.3507 -10.4656  -8.8066
    -8.4453  -7.8247  -7.8049  -6.5635  -5.8603  -5.8381  -4.1746  -4.0311
    -3.6559  -3.4673  -3.0921

     occupation numbers 
     1.0000   1.0000   1.0000   1.0000   1.0000   1.0000   1.0000   1.0000
     1.0000   1.0000   1.0000   1.0000   1.0000   1.0000   1.0000   1.0000
     1.0000   1.0000   1.0000

     highest occupied level (ev):    -3.0921

     The total energy is the sum of the following terms:

     one-electron contribution =    -308.47703604 Ry
     hartree contribution      =     162.04444499 Ry
     xc contribution           =     -31.33062905 Ry
     ewald contribution        =      74.47044433 Ry

!    total energy              =    -103.29277578 Ry
     Harris-Foulkes estimate   =    -103.29277578 Ry
     estimated scf accuracy    <          9.9E-09 Ry

     The total energy is the sum of the following terms:

     one-electron contribution =    -308.47703604 Ry
     hartree contribution      =     162.04444499 Ry
     xc contribution           =     -31.33062905 Ry
     ewald contribution        =      74.47044433 Ry

     total magnetization       =     0.00 Bohr mag/cell
     absolute magnetization    =     0.00 Bohr mag/cell

     convergence has been achieved in   3 iterations
 
     Using Hirshfeld
        Amplitude [Ry a.u.] :  1.0708E-01
        Acceptor Fragment start :          13
        Acceptor Fragment end   :          13
 
     E field correction :   -2.38385446761507       Ry
     Total charge in well     :  -0.737631045806182       Ha atomic units
     Surplus/deficit electrons    :   -0.262368954193818      electrons
     epcdft_thr                   :    1.000000000000000E-002 electrons
 
     -----------------------------------------------
 
                      SCF converged but...
 
     electron localization condition NOT satisfied
     restarting scf with different applied potential
 
     New field Amp      :   0.132695308653450       Ry
     charge density from previous step
 
     Using Hirshfeld
        Amplitude [Ry a.u.] :  1.3270E-01
        Acceptor Fragment start :          13
        Acceptor Fragment end   :          13
 

     total cpu time spent up to now is      107.7 secs

     Self-consistent Calculation

     iteration #  1     ecut=    80.00 Ry     beta=0.30
     Davidson diagonalization with overlap
     ethr =  1.29E-10,  avg # of iterations = 10.0
 
     Magnetic moment per site:
     atom:    1    charge:    0.8523    magn:    0.0000    constr:    0.0000
     atom:    2    charge:    0.8546    magn:    0.0000    constr:    0.0000
     atom:    3    charge:    0.8546    magn:    0.0000    constr:    0.0000
     atom:    4    charge:    0.8523    magn:    0.0000    constr:    0.0000
     atom:    5    charge:    0.8567    magn:    0.0000    constr:    0.0000
     atom:    6    charge:    0.8567    magn:    0.0000    constr:    0.0000
     atom:    7    charge:    0.4977    magn:    0.0000    constr:    0.0000
     atom:    8    charge:    0.4976    magn:    0.0000    constr:    0.0000
     atom:    9    charge:    0.4976    magn:    0.0000    constr:    0.0000
     atom:   10    charge:    0.4977    magn:    0.0000    constr:    0.0000
     atom:   11    charge:    0.4990    magn:    0.0000    constr:    0.0000
     atom:   12    charge:    0.4990    magn:    0.0000    constr:    0.0000
     atom:   13    charge:    6.6096    magn:    0.0000    constr:    0.0000

     total cpu time spent up to now is      144.9 secs

     The total energy is the sum of the following terms:

     one-electron contribution =    -307.89672686 Ry
     hartree contribution      =     162.04429240 Ry
     xc contribution           =     -31.33359640 Ry
     ewald contribution        =      74.47044433 Ry

     total energy              =    -102.72283095 Ry
     Harris-Foulkes estimate   =    -102.72291625 Ry
     estimated scf accuracy    <       0.00019740 Ry

     total magnetization       =     0.00 Bohr mag/cell
     absolute magnetization    =     0.00 Bohr mag/cell

     iteration #  2     ecut=    80.00 Ry     beta=0.30
     Davidson diagonalization with overlap
     ethr =  5.19E-07,  avg # of iterations =  2.0
 
     Magnetic moment per site:
     atom:    1    charge:    0.8523    magn:    0.0000    constr:    0.0000
     atom:    2    charge:    0.8546    magn:    0.0000    constr:    0.0000
     atom:    3    charge:    0.8546    magn:    0.0000    constr:    0.0000
     atom:    4    charge:    0.8523    magn:    0.0000    constr:    0.0000
     atom:    5    charge:    0.8567    magn:    0.0000    constr:    0.0000
     atom:    6    charge:    0.8567    magn:    0.0000    constr:    0.0000
     atom:    7    charge:    0.4976    magn:    0.0000    constr:    0.0000
     atom:    8    charge:    0.4975    magn:    0.0000    constr:    0.0000
     atom:    9    charge:    0.4975    magn:    0.0000    constr:    0.0000
     atom:   10    charge:    0.4976    magn:    0.0000    constr:    0.0000
     atom:   11    charge:    0.4990    magn:    0.0000    constr:    0.0000
     atom:   12    charge:    0.4990    magn:    0.0000    constr:    0.0000
     atom:   13    charge:    6.6122    magn:    0.0000    constr:    0.0000

     total cpu time spent up to now is      145.4 secs

     The total energy is the sum of the following terms:

     one-electron contribution =    -307.89101532 Ry
     hartree contribution      =     162.03986796 Ry
     xc contribution           =     -31.33472670 Ry
     ewald contribution        =      74.47044433 Ry

     total energy              =    -102.72283411 Ry
     Harris-Foulkes estimate   =    -102.72284911 Ry
     estimated scf accuracy    <       0.00003081 Ry

     total magnetization       =     0.00 Bohr mag/cell
     absolute magnetization    =     0.00 Bohr mag/cell

     iteration #  3     ecut=    80.00 Ry     beta=0.30
     Davidson diagonalization with overlap
     ethr =  8.11E-08,  avg # of iterations =  3.0
 
     Magnetic moment per site:
     atom:    1    charge:    0.8524    magn:    0.0000    constr:    0.0000
     atom:    2    charge:    0.8546    magn:    0.0000    constr:    0.0000
     atom:    3    charge:    0.8546    magn:    0.0000    constr:    0.0000
     atom:    4    charge:    0.8524    magn:    0.0000    constr:    0.0000
     atom:    5    charge:    0.8568    magn:    0.0000    constr:    0.0000
     atom:    6    charge:    0.8568    magn:    0.0000    constr:    0.0000
     atom:    7    charge:    0.4976    magn:    0.0000    constr:    0.0000
     atom:    8    charge:    0.4975    magn:    0.0000    constr:    0.0000
     atom:    9    charge:    0.4975    magn:    0.0000    constr:    0.0000
     atom:   10    charge:    0.4976    magn:    0.0000    constr:    0.0000
     atom:   11    charge:    0.4989    magn:    0.0000    constr:    0.0000
     atom:   12    charge:    0.4989    magn:    0.0000    constr:    0.0000
     atom:   13    charge:    6.6125    magn:    0.0000    constr:    0.0000

     total cpu time spent up to now is      146.0 secs

     The total energy is the sum of the following terms:

     one-electron contribution =    -307.89173430 Ry
     hartree contribution      =     162.03481316 Ry
     xc contribution           =     -31.33463247 Ry
     ewald contribution        =      74.47044433 Ry

     total energy              =    -102.72283546 Ry
     Harris-Foulkes estimate   =    -102.72283805 Ry
     estimated scf accuracy    <       0.00000598 Ry

     total magnetization       =     0.00 Bohr mag/cell
     absolute magnetization    =     0.00 Bohr mag/cell

     iteration #  4     ecut=    80.00 Ry     beta=0.30
     Davidson diagonalization with overlap
     ethr =  1.57E-08,  avg # of iterations =  2.0
 
     Magnetic moment per site:
     atom:    1    charge:    0.8524    magn:    0.0000    constr:    0.0000
     atom:    2    charge:    0.8546    magn:    0.0000    constr:    0.0000
     atom:    3    charge:    0.8546    magn:    0.0000    constr:    0.0000
     atom:    4    charge:    0.8524    magn:    0.0000    constr:    0.0000
     atom:    5    charge:    0.8568    magn:    0.0000    constr:    0.0000
     atom:    6    charge:    0.8568    magn:    0.0000    constr:    0.0000
     atom:    7    charge:    0.4976    magn:    0.0000    constr:    0.0000
     atom:    8    charge:    0.4975    magn:    0.0000    constr:    0.0000
     atom:    9    charge:    0.4975    magn:    0.0000    constr:    0.0000
     atom:   10    charge:    0.4976    magn:    0.0000    constr:    0.0000
     atom:   11    charge:    0.4989    magn:    0.0000    constr:    0.0000
     atom:   12    charge:    0.4989    magn:    0.0000    constr:    0.0000
     atom:   13    charge:    6.6127    magn:    0.0000    constr:    0.0000

     total cpu time spent up to now is      146.6 secs

     The total energy is the sum of the following terms:

     one-electron contribution =    -307.89187918 Ry
     hartree contribution      =     162.03394662 Ry
     xc contribution           =     -31.33472300 Ry
     ewald contribution        =      74.47044433 Ry

     total energy              =    -102.72283586 Ry
     Harris-Foulkes estimate   =    -102.72283596 Ry
     estimated scf accuracy    <       0.00000027 Ry

     total magnetization       =     0.00 Bohr mag/cell
     absolute magnetization    =     0.00 Bohr mag/cell

     iteration #  5     ecut=    80.00 Ry     beta=0.30
     Davidson diagonalization with overlap
     ethr =  7.06E-10,  avg # of iterations =  4.0
 
     Magnetic moment per site:
     atom:    1    charge:    0.8524    magn:    0.0000    constr:    0.0000
     atom:    2    charge:    0.8546    magn:    0.0000    constr:    0.0000
     atom:    3    charge:    0.8546    magn:    0.0000    constr:    0.0000
     atom:    4    charge:    0.8524    magn:    0.0000    constr:    0.0000
     atom:    5    charge:    0.8568    magn:    0.0000    constr:    0.0000
     atom:    6    charge:    0.8568    magn:    0.0000    constr:    0.0000
     atom:    7    charge:    0.4976    magn:    0.0000    constr:    0.0000
     atom:    8    charge:    0.4975    magn:    0.0000    constr:    0.0000
     atom:    9    charge:    0.4975    magn:    0.0000    constr:    0.0000
     atom:   10    charge:    0.4976    magn:    0.0000    constr:    0.0000
     atom:   11    charge:    0.4990    magn:    0.0000    constr:    0.0000
     atom:   12    charge:    0.4990    magn:    0.0000    constr:    0.0000
     atom:   13    charge:    6.6126    magn:    0.0000    constr:    0.0000

     total cpu time spent up to now is      147.2 secs

     The total energy is the sum of the following terms:

     one-electron contribution =    -307.89124892 Ry
     hartree contribution      =     162.03323189 Ry
     xc contribution           =     -31.33467505 Ry
     ewald contribution        =      74.47044433 Ry

     total energy              =    -102.72283593 Ry
     Harris-Foulkes estimate   =    -102.72283594 Ry
     estimated scf accuracy    <       0.00000004 Ry

     total magnetization       =     0.00 Bohr mag/cell
     absolute magnetization    =     0.00 Bohr mag/cell

     iteration #  6     ecut=    80.00 Ry     beta=0.30
     Davidson diagonalization with overlap
     ethr =  1.09E-10,  avg # of iterations =  3.0
 
     Magnetic moment per site:
     atom:    1    charge:    0.8524    magn:    0.0000    constr:    0.0000
     atom:    2    charge:    0.8546    magn:    0.0000    constr:    0.0000
     atom:    3    charge:    0.8546    magn:    0.0000    constr:    0.0000
     atom:    4    charge:    0.8524    magn:    0.0000    constr:    0.0000
     atom:    5    charge:    0.8568    magn:    0.0000    constr:    0.0000
     atom:    6    charge:    0.8568    magn:    0.0000    constr:    0.0000
     atom:    7    charge:    0.4976    magn:    0.0000    constr:    0.0000
     atom:    8    charge:    0.4975    magn:    0.0000    constr:    0.0000
     atom:    9    charge:    0.4975    magn:    0.0000    constr:    0.0000
     atom:   10    charge:    0.4976    magn:    0.0000    constr:    0.0000
     atom:   11    charge:    0.4990    magn:    0.0000    constr:    0.0000
     atom:   12    charge:    0.4990    magn:    0.0000    constr:    0.0000
     atom:   13    charge:    6.6126    magn:    0.0000    constr:    0.0000

     total cpu time spent up to now is      147.9 secs

     The total energy is the sum of the following terms:

     one-electron contribution =    -307.89204990 Ry
     hartree contribution      =     162.03334424 Ry
     xc contribution           =     -31.33472974 Ry
     ewald contribution        =      74.47044433 Ry

     total energy              =    -102.72283593 Ry
     Harris-Foulkes estimate   =    -102.72283594 Ry
     estimated scf accuracy    <       0.00000001 Ry

     total magnetization       =     0.00 Bohr mag/cell
     absolute magnetization    =     0.00 Bohr mag/cell

     iteration #  7     ecut=    80.00 Ry     beta=0.30
     Davidson diagonalization with overlap
     ethr =  2.91E-11,  avg # of iterations =  2.0
 
     Magnetic moment per site:
     atom:    1    charge:    0.8524    magn:    0.0000    constr:    0.0000
     atom:    2    charge:    0.8546    magn:    0.0000    constr:    0.0000
     atom:    3    charge:    0.8546    magn:    0.0000    constr:    0.0000
     atom:    4    charge:    0.8524    magn:    0.0000    constr:    0.0000
     atom:    5    charge:    0.8568    magn:    0.0000    constr:    0.0000
     atom:    6    charge:    0.8568    magn:    0.0000    constr:    0.0000
     atom:    7    charge:    0.4976    magn:    0.0000    constr:    0.0000
     atom:    8    charge:    0.4975    magn:    0.0000    constr:    0.0000
     atom:    9    charge:    0.4975    magn:    0.0000    constr:    0.0000
     atom:   10    charge:    0.4976    magn:    0.0000    constr:    0.0000
     atom:   11    charge:    0.4990    magn:    0.0000    constr:    0.0000
     atom:   12    charge:    0.4990    magn:    0.0000    constr:    0.0000
     atom:   13    charge:    6.6126    magn:    0.0000    constr:    0.0000

     total cpu time spent up to now is      148.4 secs

     End of self-consistent calculation

 ------ SPIN UP ------------


          k = 0.0000 0.0000 0.0000 ( 40657 PWs)   bands (ev):

   -18.3418 -15.6553 -15.5973 -15.4223 -12.0332 -12.0313 -10.1451  -8.4848
    -8.1274  -7.5046  -7.4845  -6.2718  -5.5398  -5.5180  -4.1425  -4.0679
    -3.8809  -3.3634  -3.0523

     occupation numbers 
     1.0000   1.0000   1.0000   1.0000   1.0000   1.0000   1.0000   1.0000
     1.0000   1.0000   1.0000   1.0000   1.0000   1.0000   1.0000   1.0000
     1.0000   1.0000   1.0000

 ------ SPIN DOWN ----------


          k = 0.0000 0.0000 0.0000 ( 40657 PWs)   bands (ev):

   -18.3418 -15.6553 -15.5973 -15.4223 -12.0332 -12.0313 -10.1451  -8.4848
    -8.1274  -7.5046  -7.4845  -6.2718  -5.5398  -5.5180  -4.1425  -4.0679
    -3.8809  -3.3634  -3.0523

     occupation numbers 
     1.0000   1.0000   1.0000   1.0000   1.0000   1.0000   1.0000   1.0000
     1.0000   1.0000   1.0000   1.0000   1.0000   1.0000   1.0000   1.0000
     1.0000   1.0000   1.0000

     highest occupied level (ev):    -3.0523

     The total energy is the sum of the following terms:

     one-electron contribution =    -307.89187613 Ry
     hartree contribution      =     162.03332910 Ry
     xc contribution           =     -31.33473323 Ry
     ewald contribution        =      74.47044433 Ry

!    total energy              =    -102.72283594 Ry
     Harris-Foulkes estimate   =    -102.72283594 Ry
     estimated scf accuracy    <          3.1E-09 Ry

     The total energy is the sum of the following terms:

     one-electron contribution =    -307.89187613 Ry
     hartree contribution      =     162.03332910 Ry
     xc contribution           =     -31.33473323 Ry
     ewald contribution        =      74.47044433 Ry

     total magnetization       =     0.00 Bohr mag/cell
     absolute magnetization    =     0.00 Bohr mag/cell

     convergence has been achieved in   7 iterations
 
     Using Hirshfeld
        Amplitude [Ry a.u.] :  1.3270E-01
        Acceptor Fragment start :          13
        Acceptor Fragment end   :          13
 
     E field correction :   -2.95086967882743       Ry
     Total charge in well     :  -0.762064772507802       Ha atomic units
     Surplus/deficit electrons    :   -0.237935227492198      electrons
     epcdft_thr                   :    1.000000000000000E-002 electrons
 
     -----------------------------------------------
 
                      SCF converged but...
 
     electron localization condition NOT satisfied
     restarting scf with different applied potential
 
     New field Amp      :   0.157639453957889       Ry
     charge density from previous step
 
     Using Hirshfeld
        Amplitude [Ry a.u.] :  1.5764E-01
        Acceptor Fragment start :          13
        Acceptor Fragment end   :          13
 

     total cpu time spent up to now is      172.6 secs

     Self-consistent Calculation

     iteration #  1     ecut=    80.00 Ry     beta=0.30
     Davidson diagonalization with overlap
     ethr =  2.91E-11,  avg # of iterations = 11.0
 
     Magnetic moment per site:
     atom:    1    charge:    0.8522    magn:    0.0000    constr:    0.0000
     atom:    2    charge:    0.8545    magn:    0.0000    constr:    0.0000
     atom:    3    charge:    0.8545    magn:    0.0000    constr:    0.0000
     atom:    4    charge:    0.8522    magn:    0.0000    constr:    0.0000
     atom:    5    charge:    0.8567    magn:    0.0000    constr:    0.0000
     atom:    6    charge:    0.8567    magn:    0.0000    constr:    0.0000
     atom:    7    charge:    0.4976    magn:    0.0000    constr:    0.0000
     atom:    8    charge:    0.4974    magn:    0.0000    constr:    0.0000
     atom:    9    charge:    0.4974    magn:    0.0000    constr:    0.0000
     atom:   10    charge:    0.4976    magn:    0.0000    constr:    0.0000
     atom:   11    charge:    0.4990    magn:    0.0000    constr:    0.0000
     atom:   12    charge:    0.4990    magn:    0.0000    constr:    0.0000
     atom:   13    charge:    6.6176    magn:    0.0000    constr:    0.0000

     total cpu time spent up to now is      174.1 secs

     The total energy is the sum of the following terms:

     one-electron contribution =    -307.32402987 Ry
     hartree contribution      =     162.03173834 Ry
     xc contribution           =     -31.33717602 Ry
     ewald contribution        =      74.47044433 Ry

     total energy              =    -102.16840618 Ry
     Harris-Foulkes estimate   =    -102.16847511 Ry
     estimated scf accuracy    <       0.00015933 Ry

     total magnetization       =     0.00 Bohr mag/cell
     absolute magnetization    =     0.00 Bohr mag/cell

     iteration #  2     ecut=    80.00 Ry     beta=0.30
     Davidson diagonalization with overlap
     ethr =  4.19E-07,  avg # of iterations =  2.0
 
     Magnetic moment per site:
     atom:    1    charge:    0.8522    magn:    0.0000    constr:    0.0000
     atom:    2    charge:    0.8545    magn:    0.0000    constr:    0.0000
     atom:    3    charge:    0.8545    magn:    0.0000    constr:    0.0000
     atom:    4    charge:    0.8522    magn:    0.0000    constr:    0.0000
     atom:    5    charge:    0.8567    magn:    0.0000    constr:    0.0000
     atom:    6    charge:    0.8567    magn:    0.0000    constr:    0.0000
     atom:    7    charge:    0.4976    magn:    0.0000    constr:    0.0000
     atom:    8    charge:    0.4974    magn:    0.0000    constr:    0.0000
     atom:    9    charge:    0.4974    magn:    0.0000    constr:    0.0000
     atom:   10    charge:    0.4976    magn:    0.0000    constr:    0.0000
     atom:   11    charge:    0.4989    magn:    0.0000    constr:    0.0000
     atom:   12    charge:    0.4989    magn:    0.0000    constr:    0.0000
     atom:   13    charge:    6.6200    magn:    0.0000    constr:    0.0000

     total cpu time spent up to now is      174.6 secs

     The total energy is the sum of the following terms:

     one-electron contribution =    -307.31996707 Ry
     hartree contribution      =     162.02683118 Ry
     xc contribution           =     -31.33808201 Ry
     ewald contribution        =      74.47044433 Ry

     total energy              =    -102.16840785 Ry
     Harris-Foulkes estimate   =    -102.16842055 Ry
     estimated scf accuracy    <       0.00002582 Ry

     total magnetization       =     0.00 Bohr mag/cell
     absolute magnetization    =     0.00 Bohr mag/cell

     iteration #  3     ecut=    80.00 Ry     beta=0.30
     Davidson diagonalization with overlap
     ethr =  6.80E-08,  avg # of iterations =  2.0
 
     Magnetic moment per site:
     atom:    1    charge:    0.8523    magn:    0.0000    constr:    0.0000
     atom:    2    charge:    0.8545    magn:    0.0000    constr:    0.0000
     atom:    3    charge:    0.8545    magn:    0.0000    constr:    0.0000
     atom:    4    charge:    0.8523    magn:    0.0000    constr:    0.0000
     atom:    5    charge:    0.8567    magn:    0.0000    constr:    0.0000
     atom:    6    charge:    0.8567    magn:    0.0000    constr:    0.0000
     atom:    7    charge:    0.4975    magn:    0.0000    constr:    0.0000
     atom:    8    charge:    0.4973    magn:    0.0000    constr:    0.0000
     atom:    9    charge:    0.4973    magn:    0.0000    constr:    0.0000
     atom:   10    charge:    0.4975    magn:    0.0000    constr:    0.0000
     atom:   11    charge:    0.4989    magn:    0.0000    constr:    0.0000
     atom:   12    charge:    0.4989    magn:    0.0000    constr:    0.0000
     atom:   13    charge:    6.6202    magn:    0.0000    constr:    0.0000

     total cpu time spent up to now is      175.2 secs

     The total energy is the sum of the following terms:

     one-electron contribution =    -307.32209038 Ry
     hartree contribution      =     162.02268135 Ry
     xc contribution           =     -31.33801404 Ry
     ewald contribution        =      74.47044433 Ry

     total energy              =    -102.16840885 Ry
     Harris-Foulkes estimate   =    -102.16841105 Ry
     estimated scf accuracy    <       0.00000500 Ry

     total magnetization       =     0.00 Bohr mag/cell
     absolute magnetization    =     0.00 Bohr mag/cell

     iteration #  4     ecut=    80.00 Ry     beta=0.30
     Davidson diagonalization with overlap
     ethr =  1.32E-08,  avg # of iterations =  2.0
 
     Magnetic moment per site:
     atom:    1    charge:    0.8523    magn:    0.0000    constr:    0.0000
     atom:    2    charge:    0.8545    magn:    0.0000    constr:    0.0000
     atom:    3    charge:    0.8545    magn:    0.0000    constr:    0.0000
     atom:    4    charge:    0.8523    magn:    0.0000    constr:    0.0000
     atom:    5    charge:    0.8567    magn:    0.0000    constr:    0.0000
     atom:    6    charge:    0.8567    magn:    0.0000    constr:    0.0000
     atom:    7    charge:    0.4975    magn:    0.0000    constr:    0.0000
     atom:    8    charge:    0.4973    magn:    0.0000    constr:    0.0000
     atom:    9    charge:    0.4973    magn:    0.0000    constr:    0.0000
     atom:   10    charge:    0.4975    magn:    0.0000    constr:    0.0000
     atom:   11    charge:    0.4989    magn:    0.0000    constr:    0.0000
     atom:   12    charge:    0.4989    magn:    0.0000    constr:    0.0000
     atom:   13    charge:    6.6204    magn:    0.0000    constr:    0.0000

     total cpu time spent up to now is      175.7 secs

     The total energy is the sum of the following terms:

     one-electron contribution =    -307.32130279 Ry
     hartree contribution      =     162.02156002 Ry
     xc contribution           =     -31.33807003 Ry
     ewald contribution        =      74.47044433 Ry

     total energy              =    -102.16840918 Ry
     Harris-Foulkes estimate   =    -102.16840926 Ry
     estimated scf accuracy    <       0.00000020 Ry

     total magnetization       =     0.00 Bohr mag/cell
     absolute magnetization    =     0.00 Bohr mag/cell

     iteration #  5     ecut=    80.00 Ry     beta=0.30
     Davidson diagonalization with overlap
     ethr =  5.33E-10,  avg # of iterations =  4.0
 
     Magnetic moment per site:
     atom:    1    charge:    0.8523    magn:    0.0000    constr:    0.0000
     atom:    2    charge:    0.8545    magn:    0.0000    constr:    0.0000
     atom:    3    charge:    0.8545    magn:    0.0000    constr:    0.0000
     atom:    4    charge:    0.8523    magn:    0.0000    constr:    0.0000
     atom:    5    charge:    0.8567    magn:    0.0000    constr:    0.0000
     atom:    6    charge:    0.8567    magn:    0.0000    constr:    0.0000
     atom:    7    charge:    0.4975    magn:    0.0000    constr:    0.0000
     atom:    8    charge:    0.4973    magn:    0.0000    constr:    0.0000
     atom:    9    charge:    0.4973    magn:    0.0000    constr:    0.0000
     atom:   10    charge:    0.4975    magn:    0.0000    constr:    0.0000
     atom:   11    charge:    0.4989    magn:    0.0000    constr:    0.0000
     atom:   12    charge:    0.4989    magn:    0.0000    constr:    0.0000
     atom:   13    charge:    6.6203    magn:    0.0000    constr:    0.0000

     total cpu time spent up to now is      176.4 secs

     The total energy is the sum of the following terms:

     one-electron contribution =    -307.32094420 Ry
     hartree contribution      =     162.02080100 Ry
     xc contribution           =     -31.33801465 Ry
     ewald contribution        =      74.47044433 Ry

     total energy              =    -102.16840924 Ry
     Harris-Foulkes estimate   =    -102.16840925 Ry
     estimated scf accuracy    <       0.00000003 Ry

     total magnetization       =     0.00 Bohr mag/cell
     absolute magnetization    =     0.00 Bohr mag/cell

     iteration #  6     ecut=    80.00 Ry     beta=0.30
     Davidson diagonalization with overlap
     ethr =  7.41E-11,  avg # of iterations =  2.0
 
     Magnetic moment per site:
     atom:    1    charge:    0.8523    magn:    0.0000    constr:    0.0000
     atom:    2    charge:    0.8545    magn:    0.0000    constr:    0.0000
     atom:    3    charge:    0.8545    magn:    0.0000    constr:    0.0000
     atom:    4    charge:    0.8523    magn:    0.0000    constr:    0.0000
     atom:    5    charge:    0.8567    magn:    0.0000    constr:    0.0000
     atom:    6    charge:    0.8567    magn:    0.0000    constr:    0.0000
     atom:    7    charge:    0.4975    magn:    0.0000    constr:    0.0000
     atom:    8    charge:    0.4973    magn:    0.0000    constr:    0.0000
     atom:    9    charge:    0.4973    magn:    0.0000    constr:    0.0000
     atom:   10    charge:    0.4975    magn:    0.0000    constr:    0.0000
     atom:   11    charge:    0.4989    magn:    0.0000    constr:    0.0000
     atom:   12    charge:    0.4989    magn:    0.0000    constr:    0.0000
     atom:   13    charge:    6.6203    magn:    0.0000    constr:    0.0000

     total cpu time spent up to now is      177.0 secs

     End of self-consistent calculation

 ------ SPIN UP ------------


          k = 0.0000 0.0000 0.0000 ( 40657 PWs)   bands (ev):

   -18.0329 -15.7664 -15.2863 -15.2482 -11.7211 -11.7190  -9.8318  -8.1701
    -7.8165  -7.1916  -7.1714  -5.9985  -5.2266  -5.2052  -4.2639  -4.2555
    -4.0681  -3.1163  -2.8947

     occupation numbers 
     1.0000   1.0000   1.0000   1.0000   1.0000   1.0000   1.0000   1.0000
     1.0000   1.0000   1.0000   1.0000   1.0000   1.0000   1.0000   1.0000
     1.0000   1.0000   1.0000

 ------ SPIN DOWN ----------


          k = 0.0000 0.0000 0.0000 ( 40657 PWs)   bands (ev):

   -18.0329 -15.7664 -15.2863 -15.2482 -11.7211 -11.7190  -9.8318  -8.1701
    -7.8165  -7.1916  -7.1714  -5.9985  -5.2266  -5.2052  -4.2639  -4.2555
    -4.0681  -3.1163  -2.8947

     occupation numbers 
     1.0000   1.0000   1.0000   1.0000   1.0000   1.0000   1.0000   1.0000
     1.0000   1.0000   1.0000   1.0000   1.0000   1.0000   1.0000   1.0000
     1.0000   1.0000   1.0000

     highest occupied level (ev):    -2.8947

     The total energy is the sum of the following terms:

     one-electron contribution =    -307.32180232 Ry
     hartree contribution      =     162.02105120 Ry
     xc contribution           =     -31.33810245 Ry
     ewald contribution        =      74.47044433 Ry

!    total energy              =    -102.16840925 Ry
     Harris-Foulkes estimate   =    -102.16840925 Ry
     estimated scf accuracy    <          5.9E-09 Ry

     The total energy is the sum of the following terms:

     one-electron contribution =    -307.32180232 Ry
     hartree contribution      =     162.02105120 Ry
     xc contribution           =     -31.33810245 Ry
     ewald contribution        =      74.47044433 Ry

     total magnetization       =     0.00 Bohr mag/cell
     absolute magnetization    =     0.00 Bohr mag/cell

     convergence has been achieved in   6 iterations
 
     Using Hirshfeld
        Amplitude [Ry a.u.] :  1.5764E-01
        Acceptor Fragment start :          13
        Acceptor Fragment end   :          13
 
     E field correction :   -3.50208056129879       Ry
     Total charge in well     :  -0.784238188021959       Ha atomic units
     Surplus/deficit electrons    :   -0.215761811978041      electrons
     epcdft_thr                   :    1.000000000000000E-002 electrons
 
     -----------------------------------------------
 
                      SCF converged but...
 
     electron localization condition NOT satisfied
     restarting scf with different applied potential
 
     New field Amp      :   0.181911736167606       Ry
     charge density from previous step
 
     Using Hirshfeld
        Amplitude [Ry a.u.] :  1.8191E-01
        Acceptor Fragment start :          13
        Acceptor Fragment end   :          13
 

     total cpu time spent up to now is      185.5 secs

     Self-consistent Calculation

     iteration #  1     ecut=    80.00 Ry     beta=0.30
     Davidson diagonalization with overlap
     ethr =  7.41E-11,  avg # of iterations = 10.0
 
     Magnetic moment per site:
     atom:    1    charge:    0.8521    magn:    0.0000    constr:    0.0000
     atom:    2    charge:    0.8544    magn:    0.0000    constr:    0.0000
     atom:    3    charge:    0.8544    magn:    0.0000    constr:    0.0000
     atom:    4    charge:    0.8521    magn:    0.0000    constr:    0.0000
     atom:    5    charge:    0.8566    magn:    0.0000    constr:    0.0000
     atom:    6    charge:    0.8566    magn:    0.0000    constr:    0.0000
     atom:    7    charge:    0.4975    magn:    0.0000    constr:    0.0000
     atom:    8    charge:    0.4973    magn:    0.0000    constr:    0.0000
     atom:    9    charge:    0.4973    magn:    0.0000    constr:    0.0000
     atom:   10    charge:    0.4975    magn:    0.0000    constr:    0.0000
     atom:   11    charge:    0.4989    magn:    0.0000    constr:    0.0000
     atom:   12    charge:    0.4989    magn:    0.0000    constr:    0.0000
     atom:   13    charge:    6.6248    magn:    0.0000    constr:    0.0000

     total cpu time spent up to now is      225.9 secs

     The total energy is the sum of the following terms:

     one-electron contribution =    -306.76526982 Ry
     hartree contribution      =     162.01771155 Ry
     xc contribution           =     -31.34003619 Ry
     ewald contribution        =      74.47044433 Ry

     total energy              =    -101.62943126 Ry
     Harris-Foulkes estimate   =    -101.62948778 Ry
     estimated scf accuracy    <       0.00013034 Ry

     total magnetization       =     0.00 Bohr mag/cell
     absolute magnetization    =     0.00 Bohr mag/cell

     iteration #  2     ecut=    80.00 Ry     beta=0.30
     Davidson diagonalization with overlap
     ethr =  3.43E-07,  avg # of iterations =  2.0
 
     Magnetic moment per site:
     atom:    1    charge:    0.8521    magn:    0.0000    constr:    0.0000
     atom:    2    charge:    0.8544    magn:    0.0000    constr:    0.0000
     atom:    3    charge:    0.8544    magn:    0.0000    constr:    0.0000
     atom:    4    charge:    0.8521    magn:    0.0000    constr:    0.0000
     atom:    5    charge:    0.8566    magn:    0.0000    constr:    0.0000
     atom:    6    charge:    0.8566    magn:    0.0000    constr:    0.0000
     atom:    7    charge:    0.4975    magn:    0.0000    constr:    0.0000
     atom:    8    charge:    0.4972    magn:    0.0000    constr:    0.0000
     atom:    9    charge:    0.4972    magn:    0.0000    constr:    0.0000
     atom:   10    charge:    0.4975    magn:    0.0000    constr:    0.0000
     atom:   11    charge:    0.4989    magn:    0.0000    constr:    0.0000
     atom:   12    charge:    0.4989    magn:    0.0000    constr:    0.0000
     atom:   13    charge:    6.6268    magn:    0.0000    constr:    0.0000

     total cpu time spent up to now is      226.4 secs

     The total energy is the sum of the following terms:

     one-electron contribution =    -306.76312390 Ry
     hartree contribution      =     162.01209245 Ry
     xc contribution           =     -31.34070961 Ry
     ewald contribution        =      74.47044433 Ry

     total energy              =    -101.62943177 Ry
     Harris-Foulkes estimate   =    -101.62944277 Ry
     estimated scf accuracy    <       0.00002212 Ry

     total magnetization       =     0.00 Bohr mag/cell
     absolute magnetization    =     0.00 Bohr mag/cell

     iteration #  3     ecut=    80.00 Ry     beta=0.30
     Davidson diagonalization with overlap
     ethr =  5.82E-08,  avg # of iterations =  2.0
 
     Magnetic moment per site:
     atom:    1    charge:    0.8522    magn:    0.0000    constr:    0.0000
     atom:    2    charge:    0.8544    magn:    0.0000    constr:    0.0000
     atom:    3    charge:    0.8544    magn:    0.0000    constr:    0.0000
     atom:    4    charge:    0.8522    magn:    0.0000    constr:    0.0000
     atom:    5    charge:    0.8567    magn:    0.0000    constr:    0.0000
     atom:    6    charge:    0.8567    magn:    0.0000    constr:    0.0000
     atom:    7    charge:    0.4975    magn:    0.0000    constr:    0.0000
     atom:    8    charge:    0.4972    magn:    0.0000    constr:    0.0000
     atom:    9    charge:    0.4972    magn:    0.0000    constr:    0.0000
     atom:   10    charge:    0.4975    magn:    0.0000    constr:    0.0000
     atom:   11    charge:    0.4988    magn:    0.0000    constr:    0.0000
     atom:   12    charge:    0.4988    magn:    0.0000    constr:    0.0000
     atom:   13    charge:    6.6270    magn:    0.0000    constr:    0.0000

     total cpu time spent up to now is      226.9 secs

     The total energy is the sum of the following terms:

     one-electron contribution =    -306.76646417 Ry
     hartree contribution      =     162.00850217 Ry
     xc contribution           =     -31.34063757 Ry
     ewald contribution        =      74.47044433 Ry

     total energy              =    -101.62943256 Ry
     Harris-Foulkes estimate   =    -101.62943449 Ry
     estimated scf accuracy    <       0.00000433 Ry

     total magnetization       =     0.00 Bohr mag/cell
     absolute magnetization    =     0.00 Bohr mag/cell

     iteration #  4     ecut=    80.00 Ry     beta=0.30
     Davidson diagonalization with overlap
     ethr =  1.14E-08,  avg # of iterations =  2.0
 
     Magnetic moment per site:
     atom:    1    charge:    0.8522    magn:    0.0000    constr:    0.0000
     atom:    2    charge:    0.8544    magn:    0.0000    constr:    0.0000
     atom:    3    charge:    0.8544    magn:    0.0000    constr:    0.0000
     atom:    4    charge:    0.8522    magn:    0.0000    constr:    0.0000
     atom:    5    charge:    0.8567    magn:    0.0000    constr:    0.0000
     atom:    6    charge:    0.8567    magn:    0.0000    constr:    0.0000
     atom:    7    charge:    0.4975    magn:    0.0000    constr:    0.0000
     atom:    8    charge:    0.4972    magn:    0.0000    constr:    0.0000
     atom:    9    charge:    0.4972    magn:    0.0000    constr:    0.0000
     atom:   10    charge:    0.4975    magn:    0.0000    constr:    0.0000
     atom:   11    charge:    0.4988    magn:    0.0000    constr:    0.0000
     atom:   12    charge:    0.4988    magn:    0.0000    constr:    0.0000
     atom:   13    charge:    6.6272    magn:    0.0000    constr:    0.0000

     total cpu time spent up to now is      227.5 secs

     The total energy is the sum of the following terms:

     one-electron contribution =    -306.76521094 Ry
     hartree contribution      =     162.00724952 Ry
     xc contribution           =     -31.34065743 Ry
     ewald contribution        =      74.47044433 Ry

     total energy              =    -101.62943282 Ry
     Harris-Foulkes estimate   =    -101.62943288 Ry
     estimated scf accuracy    <       0.00000018 Ry

     total magnetization       =     0.00 Bohr mag/cell
     absolute magnetization    =     0.00 Bohr mag/cell

     iteration #  5     ecut=    80.00 Ry     beta=0.30
     Davidson diagonalization with overlap
     ethr =  4.74E-10,  avg # of iterations =  4.0
 
     Magnetic moment per site:
     atom:    1    charge:    0.8522    magn:    0.0000    constr:    0.0000
     atom:    2    charge:    0.8544    magn:    0.0000    constr:    0.0000
     atom:    3    charge:    0.8544    magn:    0.0000    constr:    0.0000
     atom:    4    charge:    0.8522    magn:    0.0000    constr:    0.0000
     atom:    5    charge:    0.8567    magn:    0.0000    constr:    0.0000
     atom:    6    charge:    0.8567    magn:    0.0000    constr:    0.0000
     atom:    7    charge:    0.4975    magn:    0.0000    constr:    0.0000
     atom:    8    charge:    0.4972    magn:    0.0000    constr:    0.0000
     atom:    9    charge:    0.4972    magn:    0.0000    constr:    0.0000
     atom:   10    charge:    0.4975    magn:    0.0000    constr:    0.0000
     atom:   11    charge:    0.4989    magn:    0.0000    constr:    0.0000
     atom:   12    charge:    0.4989    magn:    0.0000    constr:    0.0000
     atom:   13    charge:    6.6271    magn:    0.0000    constr:    0.0000

     total cpu time spent up to now is      228.1 secs

     The total energy is the sum of the following terms:

     one-electron contribution =    -306.76509175 Ry
     hartree contribution      =     162.00653092 Ry
     xc contribution           =     -31.34061426 Ry
     ewald contribution        =      74.47044433 Ry

     total energy              =    -101.62943286 Ry
     Harris-Foulkes estimate   =    -101.62943286 Ry
     estimated scf accuracy    <       0.00000002 Ry

     total magnetization       =     0.00 Bohr mag/cell
     absolute magnetization    =     0.00 Bohr mag/cell

     iteration #  6     ecut=    80.00 Ry     beta=0.30
     Davidson diagonalization with overlap
     ethr =  6.31E-11,  avg # of iterations =  2.0
 
     Magnetic moment per site:
     atom:    1    charge:    0.8522    magn:    0.0000    constr:    0.0000
     atom:    2    charge:    0.8544    magn:    0.0000    constr:    0.0000
     atom:    3    charge:    0.8544    magn:    0.0000    constr:    0.0000
     atom:    4    charge:    0.8522    magn:    0.0000    constr:    0.0000
     atom:    5    charge:    0.8567    magn:    0.0000    constr:    0.0000
     atom:    6    charge:    0.8567    magn:    0.0000    constr:    0.0000
     atom:    7    charge:    0.4975    magn:    0.0000    constr:    0.0000
     atom:    8    charge:    0.4972    magn:    0.0000    constr:    0.0000
     atom:    9    charge:    0.4972    magn:    0.0000    constr:    0.0000
     atom:   10    charge:    0.4975    magn:    0.0000    constr:    0.0000
     atom:   11    charge:    0.4989    magn:    0.0000    constr:    0.0000
     atom:   12    charge:    0.4989    magn:    0.0000    constr:    0.0000
     atom:   13    charge:    6.6271    magn:    0.0000    constr:    0.0000

     total cpu time spent up to now is      228.7 secs

     End of self-consistent calculation

 ------ SPIN UP ------------


          k = 0.0000 0.0000 0.0000 ( 40657 PWs)   bands (ev):

   -17.7329 -15.9993 -14.9835 -14.9577 -11.4172 -11.4151  -9.5269  -7.8637
    -7.5141  -6.8869  -6.8668  -5.7538  -4.9218  -4.9013  -4.4782  -4.4719
    -4.2161  -2.8394  -2.6733

     occupation numbers 
     1.0000   1.0000   1.0000   1.0000   1.0000   1.0000   1.0000   1.0000
     1.0000   1.0000   1.0000   1.0000   1.0000   1.0000   1.0000   1.0000
     1.0000   1.0000   1.0000

 ------ SPIN DOWN ----------


          k = 0.0000 0.0000 0.0000 ( 40657 PWs)   bands (ev):

   -17.7329 -15.9993 -14.9835 -14.9577 -11.4172 -11.4151  -9.5269  -7.8637
    -7.5141  -6.8869  -6.8668  -5.7538  -4.9218  -4.9013  -4.4782  -4.4719
    -4.2161  -2.8394  -2.6733

     occupation numbers 
     1.0000   1.0000   1.0000   1.0000   1.0000   1.0000   1.0000   1.0000
     1.0000   1.0000   1.0000   1.0000   1.0000   1.0000   1.0000   1.0000
     1.0000   1.0000   1.0000

     highest occupied level (ev):    -2.6733

     The total energy is the sum of the following terms:

     one-electron contribution =    -306.76588319 Ry
     hartree contribution      =     162.00668541 Ry
     xc contribution           =     -31.34067940 Ry
     ewald contribution        =      74.47044433 Ry

!    total energy              =    -101.62943286 Ry
     Harris-Foulkes estimate   =    -101.62943286 Ry
     estimated scf accuracy    <          4.3E-09 Ry

     The total energy is the sum of the following terms:

     one-electron contribution =    -306.76588319 Ry
     hartree contribution      =     162.00668541 Ry
     xc contribution           =     -31.34067940 Ry
     ewald contribution        =      74.47044433 Ry

     total magnetization       =     0.00 Bohr mag/cell
     absolute magnetization    =     0.00 Bohr mag/cell

     convergence has been achieved in   6 iterations
 
     Using Hirshfeld
        Amplitude [Ry a.u.] :  1.8191E-01
        Acceptor Fragment start :          13
        Acceptor Fragment end   :          13
 
     E field correction :   -4.03756859876321       Ry
     Total charge in well     :  -0.804793226517308       Ha atomic units
     Surplus/deficit electrons    :   -0.195206773482692      electrons
     epcdft_thr                   :    1.000000000000000E-002 electrons
 
     -----------------------------------------------
 
                      SCF converged but...
 
     electron localization condition NOT satisfied
     restarting scf with different applied potential
 
     New field Amp      :   0.204962599810076       Ry
     charge density from previous step
 
[...]
     atom:   10    charge:    0.4968    magn:    0.0000    constr:    0.0000
     atom:   11    charge:    0.4984    magn:    0.0000    constr:    0.0000
     atom:   12    charge:    0.4984    magn:    0.0000    constr:    0.0000
     atom:   13    charge:    6.6543    magn:    0.0000    constr:    0.0000

     total cpu time spent up to now is     1228.7 secs

     The total energy is the sum of the following terms:

     one-electron contribution =    -303.41104314 Ry
     hartree contribution      =     161.63156729 Ry
     xc contribution           =     -31.32475876 Ry
     ewald contribution        =      74.47044433 Ry

     total energy              =     -98.63551582 Ry
     Harris-Foulkes estimate   =     -98.63551583 Ry
     estimated scf accuracy    <       0.00000005 Ry

     total magnetization       =     0.00 Bohr mag/cell
     absolute magnetization    =     0.00 Bohr mag/cell

     iteration #  8     ecut=    80.00 Ry     beta=0.30
     Davidson diagonalization with overlap
     ethr =  1.32E-10,  avg # of iterations =  6.0
 
     Magnetic moment per site:
     atom:    1    charge:    0.8517    magn:    0.0000    constr:    0.0000
     atom:    2    charge:    0.8532    magn:    0.0000    constr:    0.0000
     atom:    3    charge:    0.8532    magn:    0.0000    constr:    0.0000
     atom:    4    charge:    0.8517    magn:    0.0000    constr:    0.0000
     atom:    5    charge:    0.8564    magn:    0.0000    constr:    0.0000
     atom:    6    charge:    0.8564    magn:    0.0000    constr:    0.0000
     atom:    7    charge:    0.4968    magn:    0.0000    constr:    0.0000
     atom:    8    charge:    0.4958    magn:    0.0000    constr:    0.0000
     atom:    9    charge:    0.4958    magn:    0.0000    constr:    0.0000
     atom:   10    charge:    0.4968    magn:    0.0000    constr:    0.0000
     atom:   11    charge:    0.4984    magn:    0.0000    constr:    0.0000
     atom:   12    charge:    0.4984    magn:    0.0000    constr:    0.0000
     atom:   13    charge:    6.6543    magn:    0.0000    constr:    0.0000

     total cpu time spent up to now is     1229.4 secs

     End of self-consistent calculation

 ------ SPIN UP ------------


          k = 0.0000 0.0000 0.0000 ( 40657 PWs)   bands (ev):

   -17.4264 -16.1673 -13.4168 -13.4162  -9.8469  -9.8433  -7.9432  -6.2686
    -5.9758  -5.8737  -5.8554  -5.8429  -5.2990  -5.2841  -3.8573  -3.3412
    -3.3201  -1.3160  -1.2745

     occupation numbers 
     1.0000   1.0000   1.0000   1.0000   1.0000   1.0000   1.0000   1.0000
     1.0000   1.0000   1.0000   1.0000   1.0000   1.0000   1.0000   1.0000
     1.0000   1.0000   1.0000

 ------ SPIN DOWN ----------


          k = 0.0000 0.0000 0.0000 ( 40657 PWs)   bands (ev):

   -17.4264 -16.1673 -13.4168 -13.4162  -9.8469  -9.8433  -7.9432  -6.2686
    -5.9758  -5.8737  -5.8554  -5.8429  -5.2990  -5.2841  -3.8573  -3.3412
    -3.3201  -1.3160  -1.2745

     occupation numbers 
     1.0000   1.0000   1.0000   1.0000   1.0000   1.0000   1.0000   1.0000
     1.0000   1.0000   1.0000   1.0000   1.0000   1.0000   1.0000   1.0000
     1.0000   1.0000   1.0000

     highest occupied level (ev):    -1.2745

     The total energy is the sum of the following terms:

     one-electron contribution =    -303.41348870 Ry
     hartree contribution      =     161.63236792 Ry
     xc contribution           =     -31.32483940 Ry
     ewald contribution        =      74.47044433 Ry

!    total energy              =     -98.63551586 Ry
     Harris-Foulkes estimate   =     -98.63551584 Ry
     estimated scf accuracy    <          5.6E-09 Ry

     The total energy is the sum of the following terms:

     one-electron contribution =    -303.41348870 Ry
     hartree contribution      =     161.63236792 Ry
     xc contribution           =     -31.32483940 Ry
     ewald contribution        =      74.47044433 Ry

     total magnetization       =     0.00 Bohr mag/cell
     absolute magnetization    =     0.00 Bohr mag/cell

     convergence has been achieved in   8 iterations
 
     Using Hirshfeld
        Amplitude [Ry a.u.] :  3.1720E-01
        Acceptor Fragment start :          13
        Acceptor Fragment end   :          13
 
     E field correction :   -6.98320064633794       Ry
     Total charge in well     :  -0.984802982921796       Ha atomic units
     Surplus/deficit electrons    :   -1.519701707820431E-002 electrons
     epcdft_thr                   :    1.000000000000000E-002 electrons
 
     -----------------------------------------------
 
                      SCF converged but...
 
     electron localization condition NOT satisfied
     restarting scf with different applied potential
 
     New field Amp      :   0.319428352452853       Ry
     charge density from previous step
 
     Using Hirshfeld
        Amplitude [Ry a.u.] :  3.1943E-01
        Acceptor Fragment start :          13
        Acceptor Fragment end   :          13
 

     total cpu time spent up to now is     1257.4 secs

     Self-consistent Calculation

     iteration #  1     ecut=    80.00 Ry     beta=0.30
     Davidson diagonalization with overlap
     ethr =  1.32E-10,  avg # of iterations = 14.0
 
     Magnetic moment per site:
     atom:    1    charge:    0.8517    magn:    0.0000    constr:    0.0000
     atom:    2    charge:    0.8530    magn:    0.0000    constr:    0.0000
     atom:    3    charge:    0.8530    magn:    0.0000    constr:    0.0000
     atom:    4    charge:    0.8517    magn:    0.0000    constr:    0.0000
     atom:    5    charge:    0.8563    magn:    0.0000    constr:    0.0000
     atom:    6    charge:    0.8563    magn:    0.0000    constr:    0.0000
     atom:    7    charge:    0.4968    magn:    0.0000    constr:    0.0000
     atom:    8    charge:    0.4958    magn:    0.0000    constr:    0.0000
     atom:    9    charge:    0.4958    magn:    0.0000    constr:    0.0000
     atom:   10    charge:    0.4968    magn:    0.0000    constr:    0.0000
     atom:   11    charge:    0.4984    magn:    0.0000    constr:    0.0000
     atom:   12    charge:    0.4984    magn:    0.0000    constr:    0.0000
     atom:   13    charge:    6.6545    magn:    0.0000    constr:    0.0000

     total cpu time spent up to now is     1272.9 secs

     The total energy is the sum of the following terms:

     one-electron contribution =    -303.28514143 Ry
     hartree contribution      =     161.60650064 Ry
     xc contribution           =     -31.32275682 Ry
     ewald contribution        =      74.47044433 Ry

     total energy              =     -98.58644786 Ry
     Harris-Foulkes estimate   =     -98.58645633 Ry
     estimated scf accuracy    <       0.00002614 Ry

     total magnetization       =     0.00 Bohr mag/cell
     absolute magnetization    =     0.00 Bohr mag/cell

     iteration #  2     ecut=    80.00 Ry     beta=0.30
     Davidson diagonalization with overlap
     ethr =  6.88E-08,  avg # of iterations =  4.0
 
     Magnetic moment per site:
     atom:    1    charge:    0.8517    magn:    0.0000    constr:    0.0000
     atom:    2    charge:    0.8531    magn:    0.0000    constr:    0.0000
     atom:    3    charge:    0.8531    magn:    0.0000    constr:    0.0000
     atom:    4    charge:    0.8517    magn:    0.0000    constr:    0.0000
     atom:    5    charge:    0.8563    magn:    0.0000    constr:    0.0000
     atom:    6    charge:    0.8563    magn:    0.0000    constr:    0.0000
     atom:    7    charge:    0.4968    magn:    0.0000    constr:    0.0000
     atom:    8    charge:    0.4958    magn:    0.0000    constr:    0.0000
     atom:    9    charge:    0.4958    magn:    0.0000    constr:    0.0000
     atom:   10    charge:    0.4968    magn:    0.0000    constr:    0.0000
     atom:   11    charge:    0.4983    magn:    0.0000    constr:    0.0000
     atom:   12    charge:    0.4983    magn:    0.0000    constr:    0.0000
     atom:   13    charge:    6.6546    magn:    0.0000    constr:    0.0000

     total cpu time spent up to now is     1273.5 secs

     The total energy is the sum of the following terms:

     one-electron contribution =    -303.32693859 Ry
     hartree contribution      =     161.60130110 Ry
     xc contribution           =     -31.32247205 Ry
     ewald contribution        =      74.47044433 Ry

     total energy              =     -98.58645028 Ry
     Harris-Foulkes estimate   =     -98.58645073 Ry
     estimated scf accuracy    <       0.00000286 Ry

     total magnetization       =     0.00 Bohr mag/cell
     absolute magnetization    =     0.00 Bohr mag/cell

     iteration #  3     ecut=    80.00 Ry     beta=0.30
     Davidson diagonalization with overlap
     ethr =  7.54E-09,  avg # of iterations =  4.0
 
     Magnetic moment per site:
     atom:    1    charge:    0.8517    magn:    0.0000    constr:    0.0000
     atom:    2    charge:    0.8531    magn:    0.0000    constr:    0.0000
     atom:    3    charge:    0.8531    magn:    0.0000    constr:    0.0000
     atom:    4    charge:    0.8517    magn:    0.0000    constr:    0.0000
     atom:    5    charge:    0.8563    magn:    0.0000    constr:    0.0000
     atom:    6    charge:    0.8563    magn:    0.0000    constr:    0.0000
     atom:    7    charge:    0.4968    magn:    0.0000    constr:    0.0000
     atom:    8    charge:    0.4958    magn:    0.0000    constr:    0.0000
     atom:    9    charge:    0.4958    magn:    0.0000    constr:    0.0000
     atom:   10    charge:    0.4968    magn:    0.0000    constr:    0.0000
     atom:   11    charge:    0.4983    magn:    0.0000    constr:    0.0000
     atom:   12    charge:    0.4983    magn:    0.0000    constr:    0.0000
     atom:   13    charge:    6.6545    magn:    0.0000    constr:    0.0000

     total cpu time spent up to now is     1274.0 secs

     The total energy is the sum of the following terms:

     one-electron contribution =    -303.32921974 Ry
     hartree contribution      =     161.59686735 Ry
     xc contribution           =     -31.32218635 Ry
     ewald contribution        =      74.47044433 Ry

     total energy              =     -98.58645032 Ry
     Harris-Foulkes estimate   =     -98.58645050 Ry
     estimated scf accuracy    <       0.00000095 Ry

     total magnetization       =     0.00 Bohr mag/cell
     absolute magnetization    =     0.00 Bohr mag/cell

     iteration #  4     ecut=    80.00 Ry     beta=0.30
     Davidson diagonalization with overlap
     ethr =  2.51E-09,  avg # of iterations =  3.0
 
     Magnetic moment per site:
     atom:    1    charge:    0.8517    magn:    0.0000    constr:    0.0000
     atom:    2    charge:    0.8532    magn:    0.0000    constr:    0.0000
     atom:    3    charge:    0.8532    magn:    0.0000    constr:    0.0000
     atom:    4    charge:    0.8517    magn:    0.0000    constr:    0.0000
     atom:    5    charge:    0.8564    magn:    0.0000    constr:    0.0000
     atom:    6    charge:    0.8564    magn:    0.0000    constr:    0.0000
     atom:    7    charge:    0.4968    magn:    0.0000    constr:    0.0000
     atom:    8    charge:    0.4958    magn:    0.0000    constr:    0.0000
     atom:    9    charge:    0.4958    magn:    0.0000    constr:    0.0000
     atom:   10    charge:    0.4968    magn:    0.0000    constr:    0.0000
     atom:   11    charge:    0.4983    magn:    0.0000    constr:    0.0000
     atom:   12    charge:    0.4983    magn:    0.0000    constr:    0.0000
     atom:   13    charge:    6.6545    magn:    0.0000    constr:    0.0000

     total cpu time spent up to now is     1274.6 secs

     The total energy is the sum of the following terms:

     one-electron contribution =    -303.33032699 Ry
     hartree contribution      =     161.59536850 Ry
     xc contribution           =     -31.32212814 Ry
     ewald contribution        =      74.47044433 Ry

     total energy              =     -98.58645037 Ry
     Harris-Foulkes estimate   =     -98.58645038 Ry
     estimated scf accuracy    <       0.00000010 Ry

     total magnetization       =     0.00 Bohr mag/cell
     absolute magnetization    =     0.00 Bohr mag/cell

     iteration #  5     ecut=    80.00 Ry     beta=0.30
     Davidson diagonalization with overlap
     ethr =  2.71E-10,  avg # of iterations =  3.0
 
     Magnetic moment per site:
     atom:    1    charge:    0.8517    magn:    0.0000    constr:    0.0000
     atom:    2    charge:    0.8532    magn:    0.0000    constr:    0.0000
     atom:    3    charge:    0.8532    magn:    0.0000    constr:    0.0000
     atom:    4    charge:    0.8517    magn:    0.0000    constr:    0.0000
     atom:    5    charge:    0.8564    magn:    0.0000    constr:    0.0000
     atom:    6    charge:    0.8564    magn:    0.0000    constr:    0.0000
     atom:    7    charge:    0.4968    magn:    0.0000    constr:    0.0000
     atom:    8    charge:    0.4958    magn:    0.0000    constr:    0.0000
     atom:    9    charge:    0.4958    magn:    0.0000    constr:    0.0000
     atom:   10    charge:    0.4968    magn:    0.0000    constr:    0.0000
     atom:   11    charge:    0.4983    magn:    0.0000    constr:    0.0000
     atom:   12    charge:    0.4983    magn:    0.0000    constr:    0.0000
     atom:   13    charge:    6.6545    magn:    0.0000    constr:    0.0000

     total cpu time spent up to now is     1275.2 secs

     The total energy is the sum of the following terms:

     one-electron contribution =    -303.32964955 Ry
     hartree contribution      =     161.59529270 Ry
     xc contribution           =     -31.32215612 Ry
     ewald contribution        =      74.47044433 Ry

     total energy              =     -98.58645038 Ry
     Harris-Foulkes estimate   =     -98.58645038 Ry
     estimated scf accuracy    <       0.00000001 Ry

     total magnetization       =     0.00 Bohr mag/cell
     absolute magnetization    =     0.00 Bohr mag/cell

     iteration #  6     ecut=    80.00 Ry     beta=0.30
     Davidson diagonalization with overlap
     ethr =  3.19E-11,  avg # of iterations =  3.0
 
     Magnetic moment per site:
     atom:    1    charge:    0.8517    magn:    0.0000    constr:    0.0000
     atom:    2    charge:    0.8532    magn:    0.0000    constr:    0.0000
     atom:    3    charge:    0.8532    magn:    0.0000    constr:    0.0000
     atom:    4    charge:    0.8517    magn:    0.0000    constr:    0.0000
     atom:    5    charge:    0.8564    magn:    0.0000    constr:    0.0000
     atom:    6    charge:    0.8564    magn:    0.0000    constr:    0.0000
     atom:    7    charge:    0.4968    magn:    0.0000    constr:    0.0000
     atom:    8    charge:    0.4958    magn:    0.0000    constr:    0.0000
     atom:    9    charge:    0.4958    magn:    0.0000    constr:    0.0000
     atom:   10    charge:    0.4968    magn:    0.0000    constr:    0.0000
     atom:   11    charge:    0.4983    magn:    0.0000    constr:    0.0000
     atom:   12    charge:    0.4983    magn:    0.0000    constr:    0.0000
     atom:   13    charge:    6.6545    magn:    0.0000    constr:    0.0000

     total cpu time spent up to now is     1275.9 secs

     End of self-consistent calculation

 ------ SPIN UP ------------


          k = 0.0000 0.0000 0.0000 ( 40657 PWs)   bands (ev):

   -17.4483 -16.1571 -13.4061 -13.4045  -9.8348  -9.8311  -7.9302  -6.2549
    -5.9698  -5.8936  -5.8762  -5.8584  -5.2855  -5.2725  -3.8484  -3.3285
    -3.3074  -1.3035  -1.2655

     occupation numbers 
     1.0000   1.0000   1.0000   1.0000   1.0000   1.0000   1.0000   1.0000
     1.0000   1.0000   1.0000   1.0000   1.0000   1.0000   1.0000   1.0000
     1.0000   1.0000   1.0000

 ------ SPIN DOWN ----------


          k = 0.0000 0.0000 0.0000 ( 40657 PWs)   bands (ev):

   -17.4483 -16.1571 -13.4061 -13.4045  -9.8348  -9.8311  -7.9302  -6.2549
    -5.9698  -5.8936  -5.8762  -5.8584  -5.2855  -5.2725  -3.8484  -3.3285
    -3.3074  -1.3035  -1.2655

     occupation numbers 
     1.0000   1.0000   1.0000   1.0000   1.0000   1.0000   1.0000   1.0000
     1.0000   1.0000   1.0000   1.0000   1.0000   1.0000   1.0000   1.0000
     1.0000   1.0000   1.0000

     highest occupied level (ev):    -1.2655

     The total energy is the sum of the following terms:

     one-electron contribution =    -303.33023370 Ry
     hartree contribution      =     161.59554580 Ry
     xc contribution           =     -31.32220680 Ry
     ewald contribution        =      74.47044433 Ry

!    total energy              =     -98.58645038 Ry
     Harris-Foulkes estimate   =     -98.58645038 Ry
     estimated scf accuracy    <          3.4E-09 Ry

     The total energy is the sum of the following terms:

     one-electron contribution =    -303.33023370 Ry
     hartree contribution      =     161.59554580 Ry
     xc contribution           =     -31.32220680 Ry
     ewald contribution        =      74.47044433 Ry

     total magnetization       =     0.00 Bohr mag/cell
     absolute magnetization    =     0.00 Bohr mag/cell

     convergence has been achieved in   6 iterations
 
     Using Hirshfeld
        Amplitude [Ry a.u.] :  3.1943E-01
        Acceptor Fragment start :          13
        Acceptor Fragment end   :          13
 
     E field correction :   -7.02866997986601       Ry
     Total charge in well     :  -0.996098574550881       Ha atomic units

     Writing output data file cl.save
 
     init_run     :     49.68s CPU     53.32s WALL (       1 calls)
     electrons    :    904.03s CPU    993.04s WALL (      17 calls)
     update_pot   :      9.08s CPU     11.38s WALL (      16 calls)

     Called by init_run:
     wfcinit      :     28.63s CPU     32.00s WALL (       1 calls)
     potinit      :      0.25s CPU      0.29s WALL (       1 calls)

     Called by electrons:
     c_bands      :    768.81s CPU    842.04s WALL (     148 calls)
     sum_band     :     64.94s CPU     72.07s WALL (     148 calls)
     v_of_rho     :     58.56s CPU     65.93s WALL (     165 calls)
     v_h          :      3.71s CPU      4.26s WALL (     165 calls)
     v_xc         :     54.83s CPU     61.60s WALL (     165 calls)
     mix_rho      :     12.35s CPU     13.46s WALL (     148 calls)

     Called by c_bands:
     init_us_2    :      1.69s CPU      1.83s WALL (     594 calls)
     regterg      :    762.04s CPU    834.96s WALL (     296 calls)

     Called by sum_band:

     Called by *egterg:
     h_psi        :    534.78s CPU    581.08s WALL (    1579 calls)
     g_psi        :      0.20s CPU      0.22s WALL (    1281 calls)
     rdiaghg      :    141.02s CPU    159.86s WALL (    1545 calls)
     regterg:over :     32.44s CPU     34.88s WALL (    1281 calls)
     regterg:upda :     25.78s CPU     28.15s WALL (    1281 calls)
     regterg:last :      9.52s CPU     10.35s WALL (     356 calls)
     rdiaghg:chol :      8.09s CPU      8.83s WALL (    1545 calls)
     rdiaghg:inve :      6.65s CPU      7.38s WALL (    1545 calls)
     rdiaghg:para :     15.95s CPU     21.08s WALL (    3090 calls)

     Called by h_psi:
     h_psi:vloc   :    511.56s CPU    556.21s WALL (    1579 calls)
     h_psi:vnl    :     23.05s CPU     24.69s WALL (    1579 calls)
     add_vuspsi   :      3.34s CPU      3.92s WALL (    1579 calls)

     General routines
     calbec       :     19.70s CPU     20.77s WALL (    1579 calls)
     fft          :    270.11s CPU    308.01s WALL (   10454 calls)
     fftw         :    561.67s CPU    611.63s WALL (   21298 calls)
 
     Parallel routines
     fft_scatter  :    789.67s CPU    868.69s WALL (   31752 calls)
 
     PWSCF        : 19m29.16s CPU    21m40.90s WALL

 
   This run was terminated on:  17:46:48  12Aug2015            

=------------------------------------------------------------------------------=
   JOB DONE.
=------------------------------------------------------------------------------=
