
     Program PWSCF v.5.1.1 starts on 12Jun2015 at 15:32: 4 

     This program is part of the open-source Quantum ESPRESSO suite
     for quantum simulation of materials; please cite
         "P. Giannozzi et al., J. Phys.:Condens. Matter 21 395502 (2009);
          URL http://www.quantum-espresso.org", 
     in publications or presentations arising from this work. More details at
     http://www.quantum-espresso.org/quote

     Parallel version (MPI & OpenMP), running on       8 processor cores
     Number of MPI processes:                 8
     Threads/MPI process:                     1
     R & G space division:  proc/nbgrp/npool/nimage =       8
     Waiting for input...
     Reading input from standard input
Warning: card &IONS ignored
Warning: card / ignored

     Current dimensions of program PWSCF are:
     Max number of different atomic species (ntypx) = 10
     Max number of k-points (npk) =  40000
     Max angular momentum in pseudopotentials (lmaxx) =  3
     Presently no symmetry can be used with electric field

               file H.pbe-rrkjus.UPF: wavefunction(s)  1S renormalized

     gamma-point specific algorithms are used

     Subspace diagonalization in iterative solution of the eigenvalue problem:
     scalapack distributed-memory algorithm (size of sub-group:  2*  2 procs)

 
     Parallelization info
     --------------------
     sticks:   dense  smooth     PW     G-vecs:    dense   smooth      PW
     Min         124     124     30                 2980     2980     366
     Max         126     126     31                 2983     2983     375
     Sum         997     997    241                23847    23847    2945
     Tot         499     499    121
 


     bravais-lattice index     =            1
     lattice parameter (alat)  =      13.2281  a.u.
     unit-cell volume          =    2314.6788 (a.u.)^3
     number of atoms/cell      =            5
     number of atomic types    =            2
     number of electrons       =         8.00
     number of Kohn-Sham states=            4
     kinetic-energy cutoff     =      18.0000  Ry
     charge density cutoff     =      72.0000  Ry
     convergence threshold     =      1.0E-10
     mixing beta               =       0.3000
     number of iterations used =            8  plain     mixing
     Exchange-correlation      =  SLA  PW   PBE  PBE ( 1  4  3  4 0 0)

     celldm(1)=  13.228083  celldm(2)=   0.000000  celldm(3)=   0.000000
     celldm(4)=   0.000000  celldm(5)=   0.000000  celldm(6)=   0.000000

     crystal axes: (cart. coord. in units of alat)
               a(1) = (   1.000000   0.000000   0.000000 )  
               a(2) = (   0.000000   1.000000   0.000000 )  
               a(3) = (   0.000000   0.000000   1.000000 )  

     reciprocal axes: (cart. coord. in units 2 pi/alat)
               b(1) = (  1.000000  0.000000  0.000000 )  
               b(2) = (  0.000000  1.000000  0.000000 )  
               b(3) = (  0.000000  0.000000  1.000000 )  


     PseudoPot. # 1 for Si read from file:
     ../pseudo/Si.pbe-n-van.UPF
     MD5 check sum: 8a97496598b7338af554a5de8957bfee
     Pseudo is Ultrasoft + core correction, Zval =  4.0
     Generated by new atomic code, or converted to UPF format
     Using radial grid of  899 points,  6 beta functions with: 
                l(1) =   0
                l(2) =   0
                l(3) =   1
                l(4) =   1
                l(5) =   2
                l(6) =   2
     Q(r) pseudized with  8 coefficients,  rinner =    0.900   0.900   0.900
                                                       0.900   0.900

     PseudoPot. # 2 for H  read from file:
     ../pseudo/H.pbe-rrkjus.UPF
     MD5 check sum: 7cc9d459525c9a0585f487a71c3c9563
     Pseudo is Ultrasoft, Zval =  1.0
     Generated by new atomic code, or converted to UPF format
     Using radial grid of 1061 points,  2 beta functions with: 
                l(1) =   0
                l(2) =   0
     Q(r) pseudized with 0 coefficients 


     atomic species   valence    mass     pseudopotential
        Si             4.00    28.08550     Si( 1.00)
        H              1.00     1.00794     H ( 1.00)

     No symmetry found



   Cartesian axes

     site n.     atom                  positions (alat units)
         1           Si  tau(   1) = (  -0.0277829   0.3482714   0.0000000  )
         2           H   tau(   2) = (   0.1822929   0.3482714   0.0000000  )
         3           H   tau(   3) = (  -0.0978086   0.4498400   0.1700357  )
         4           H   tau(   4) = (  -0.0978086   0.1502329   0.0029429  )
         5           H   tau(   5) = (  -0.0978086   0.4447414  -0.1729786  )

     number of k points=     1
                       cart. coord. in units 2pi/alat
        k(    1) = (   0.0000000   0.0000000   0.0000000), wk =   2.0000000

     Dense  grid:    11924 G-vectors     FFT dimensions: (  36,  36,  36)

     Largest allocated arrays     est. size (Mb)     dimensions
        Kohn-Sham Wavefunctions         0.01 Mb     (     185,    4)
        NL pseudopotentials             0.07 Mb     (     185,   26)
        Each V/rho on FFT grid          0.10 Mb     (    6480)
        Each G-vector array             0.01 Mb     (    1490)
        G-vector shells                 0.00 Mb     (     230)
     Largest temporary arrays     est. size (Mb)     dimensions
        Auxiliary wavefunctions         0.02 Mb     (     185,   16)
        Each subspace H/S matrix        0.00 Mb     (       8,    8)
        Each <psi_i|beta_j> matrix      0.00 Mb     (      26,    4)
        Arrays for rho mixing           0.79 Mb     (    6480,    8)
 
     Using a distance-based cell
     Adding the potential well
        Amplitude [Ry a.u.] : -1.0000E+00
        Atom selected :           1
        Well size     :  2.6456E+00
 

     Check: negative/imaginary core charge=   -0.000002    0.000000

     Initial potential from superposition of free atoms

     starting charge    7.61451, renormalised to    8.00000

     negative rho (up, down):  1.309E-06 0.000E+00
     Starting wfc are    8 randomized atomic wfcs

     total cpu time spent up to now is        0.3 secs

     per-process dynamical memory:     8.3 Mb

     Self-consistent Calculation

     iteration #  1     ecut=    18.00 Ry     beta=0.30
     Davidson diagonalization with overlap
     ethr =  1.00E-02,  avg # of iterations =  3.0

     negative rho (up, down):  1.452E-04 0.000E+00

     total cpu time spent up to now is        0.3 secs

     The total energy is the sum of the following terms:

     one-electron contribution =     -25.51215573 Ry
     hartree contribution      =       7.90796645 Ry
     xc contribution           =      -6.42734757 Ry
     ewald contribution        =       0.88693575 Ry

     total energy              =     -19.32454140 Ry
     Harris-Foulkes estimate   =     -20.19038626 Ry
     estimated scf accuracy    <       2.23982698 Ry

     iteration #  2     ecut=    18.00 Ry     beta=0.30
     Davidson diagonalization with overlap
     ethr =  1.00E-02,  avg # of iterations =  1.0

     negative rho (up, down):  1.648E-02 0.000E+00

     total cpu time spent up to now is        0.4 secs

     The total energy is the sum of the following terms:

     one-electron contribution =     -25.06716702 Ry
     hartree contribution      =      11.48186360 Ry
     xc contribution           =      -7.41243376 Ry
     ewald contribution        =       0.88693575 Ry

     total energy              =     -18.82364520 Ry
     Harris-Foulkes estimate   =     -19.38781831 Ry
     estimated scf accuracy    <       0.78962972 Ry

     iteration #  3     ecut=    18.00 Ry     beta=0.30
     Davidson diagonalization with overlap
     ethr =  9.87E-03,  avg # of iterations =  2.0

     negative rho (up, down):  3.445E-02 0.000E+00

     total cpu time spent up to now is        0.4 secs

     The total energy is the sum of the following terms:

     one-electron contribution =     -24.10076313 Ry
     hartree contribution      =      11.43236352 Ry
     xc contribution           =      -7.45965362 Ry
     ewald contribution        =       0.88693575 Ry

     total energy              =     -18.91403355 Ry
     Harris-Foulkes estimate   =     -18.94966671 Ry
     estimated scf accuracy    <       0.07544953 Ry

     iteration #  4     ecut=    18.00 Ry     beta=0.30
     Davidson diagonalization with overlap
     ethr =  9.43E-04,  avg # of iterations =  2.0

     negative rho (up, down):  6.951E-02 0.000E+00

     total cpu time spent up to now is        0.4 secs

     The total energy is the sum of the following terms:

     one-electron contribution =     -24.44186788 Ry
     hartree contribution      =      12.01228972 Ry
     xc contribution           =      -7.61236897 Ry
     ewald contribution        =       0.88693575 Ry

     total energy              =     -18.91736459 Ry
     Harris-Foulkes estimate   =     -18.93203203 Ry
     estimated scf accuracy    <       0.02397622 Ry

     iteration #  5     ecut=    18.00 Ry     beta=0.30
     Davidson diagonalization with overlap
     ethr =  3.00E-04,  avg # of iterations =  2.0

     negative rho (up, down):  7.369E-02 0.000E+00

     total cpu time spent up to now is        0.5 secs

     The total energy is the sum of the following terms:

     one-electron contribution =     -24.25685898 Ry
     hartree contribution      =      12.09297117 Ry
     xc contribution           =      -7.64725205 Ry
     ewald contribution        =       0.88693575 Ry

     total energy              =     -18.92208917 Ry
     Harris-Foulkes estimate   =     -18.92110617 Ry
     estimated scf accuracy    <       0.00154119 Ry

     iteration #  6     ecut=    18.00 Ry     beta=0.30
     Davidson diagonalization with overlap
     ethr =  1.93E-05,  avg # of iterations =  1.0

     negative rho (up, down):  7.739E-02 0.000E+00

     total cpu time spent up to now is        0.5 secs

     The total energy is the sum of the following terms:

     one-electron contribution =     -24.25243428 Ry
     hartree contribution      =      12.01715831 Ry
     xc contribution           =      -7.59078245 Ry
     ewald contribution        =       0.88693575 Ry

     total energy              =     -18.92021520 Ry
     Harris-Foulkes estimate   =     -18.92213839 Ry
     estimated scf accuracy    <       0.00405717 Ry

     iteration #  7     ecut=    18.00 Ry     beta=0.30
     Davidson diagonalization with overlap
     ethr =  1.93E-05,  avg # of iterations =  2.0

     negative rho (up, down):  7.729E-02 0.000E+00

     total cpu time spent up to now is        0.5 secs

     The total energy is the sum of the following terms:

     one-electron contribution =     -24.22270469 Ry
     hartree contribution      =      12.01552554 Ry
     xc contribution           =      -7.59057950 Ry
     ewald contribution        =       0.88693575 Ry

     total energy              =     -18.92069675 Ry
     Harris-Foulkes estimate   =     -18.92070210 Ry
     estimated scf accuracy    <       0.00008209 Ry

     iteration #  8     ecut=    18.00 Ry     beta=0.30
     Davidson diagonalization with overlap
     ethr =  1.03E-06,  avg # of iterations =  1.0

     negative rho (up, down):  7.746E-02 0.000E+00

     total cpu time spent up to now is        0.6 secs

     The total energy is the sum of the following terms:

     one-electron contribution =     -24.22443146 Ry
     hartree contribution      =      12.02089966 Ry
     xc contribution           =      -7.59342365 Ry
     ewald contribution        =       0.88693575 Ry

     total energy              =     -18.92068971 Ry
     Harris-Foulkes estimate   =     -18.92070300 Ry
     estimated scf accuracy    <       0.00006660 Ry

     iteration #  9     ecut=    18.00 Ry     beta=0.30
     Davidson diagonalization with overlap
     ethr =  8.33E-07,  avg # of iterations =  1.0

     negative rho (up, down):  7.727E-02 0.000E+00

     total cpu time spent up to now is        0.6 secs

     The total energy is the sum of the following terms:

     one-electron contribution =     -24.22486488 Ry
     hartree contribution      =      12.02019573 Ry
     xc contribution           =      -7.59400115 Ry
     ewald contribution        =       0.88693575 Ry

     total energy              =     -18.92068363 Ry
     Harris-Foulkes estimate   =     -18.92069106 Ry
     estimated scf accuracy    <       0.00003680 Ry

     iteration # 10     ecut=    18.00 Ry     beta=0.30
     Davidson diagonalization with overlap
     ethr =  4.60E-07,  avg # of iterations =  1.0

     negative rho (up, down):  7.704E-02 0.000E+00

     total cpu time spent up to now is        0.6 secs

     The total energy is the sum of the following terms:

     one-electron contribution =     -24.22719422 Ry
     hartree contribution      =      12.01848413 Ry
     xc contribution           =      -7.59391434 Ry
     ewald contribution        =       0.88693575 Ry

     total energy              =     -18.92068315 Ry
     Harris-Foulkes estimate   =     -18.92068510 Ry
     estimated scf accuracy    <       0.00001089 Ry

     iteration # 11     ecut=    18.00 Ry     beta=0.30
     Davidson diagonalization with overlap
     ethr =  1.36E-07,  avg # of iterations =  1.0

     negative rho (up, down):  7.698E-02 0.000E+00

     total cpu time spent up to now is        0.7 secs

     The total energy is the sum of the following terms:

     one-electron contribution =     -24.22872572 Ry
     hartree contribution      =      12.01678581 Ry
     xc contribution           =      -7.59324308 Ry
     ewald contribution        =       0.88693575 Ry

     total energy              =     -18.92068420 Ry
     Harris-Foulkes estimate   =     -18.92068382 Ry
     estimated scf accuracy    <       0.00000288 Ry

     iteration # 12     ecut=    18.00 Ry     beta=0.30
     Davidson diagonalization with overlap
     ethr =  3.60E-08,  avg # of iterations =  1.0

     negative rho (up, down):  7.700E-02 0.000E+00

     total cpu time spent up to now is        0.7 secs

     The total energy is the sum of the following terms:

     one-electron contribution =     -24.22906052 Ry
     hartree contribution      =      12.01669323 Ry
     xc contribution           =      -7.59367397 Ry
     ewald contribution        =       0.88693575 Ry

     total energy              =     -18.92068366 Ry
     Harris-Foulkes estimate   =     -18.92068431 Ry
     estimated scf accuracy    <       0.00000295 Ry

     iteration # 13     ecut=    18.00 Ry     beta=0.30
     Davidson diagonalization with overlap
     ethr =  3.60E-08,  avg # of iterations =  2.0

     negative rho (up, down):  7.695E-02 0.000E+00

     total cpu time spent up to now is        0.8 secs

     The total energy is the sum of the following terms:

     one-electron contribution =     -24.23063642 Ry
     hartree contribution      =      12.01736298 Ry
     xc contribution           =      -7.59392829 Ry
     ewald contribution        =       0.88693575 Ry

     total energy              =     -18.92068397 Ry
     Harris-Foulkes estimate   =     -18.92068415 Ry
     estimated scf accuracy    <       0.00000005 Ry

     iteration # 14     ecut=    18.00 Ry     beta=0.30
     Davidson diagonalization with overlap
     ethr =  6.02E-10,  avg # of iterations =  2.0

     negative rho (up, down):  7.703E-02 0.000E+00

     total cpu time spent up to now is        0.8 secs

     The total energy is the sum of the following terms:

     one-electron contribution =     -24.23016960 Ry
     hartree contribution      =      12.01711498 Ry
     xc contribution           =      -7.59374146 Ry
     ewald contribution        =       0.88693575 Ry

     total energy              =     -18.92068400 Ry
     Harris-Foulkes estimate   =     -18.92068401 Ry
     estimated scf accuracy    <       0.00000023 Ry

     iteration # 15     ecut=    18.00 Ry     beta=0.30
     Davidson diagonalization with overlap
     ethr =  6.02E-10,  avg # of iterations =  2.0

     negative rho (up, down):  7.704E-02 0.000E+00

     total cpu time spent up to now is        0.8 secs

     The total energy is the sum of the following terms:

     one-electron contribution =     -24.23017843 Ry
     hartree contribution      =      12.01690491 Ry
     xc contribution           =      -7.59379556 Ry
     ewald contribution        =       0.88693575 Ry

     total energy              =     -18.92068403 Ry
     Harris-Foulkes estimate   =     -18.92068401 Ry
     estimated scf accuracy    <       0.00000016 Ry

     iteration # 16     ecut=    18.00 Ry     beta=0.30
     Davidson diagonalization with overlap
     ethr =  6.02E-10,  avg # of iterations =  2.0

     negative rho (up, down):  7.704E-02 0.000E+00

     total cpu time spent up to now is        0.9 secs

     The total energy is the sum of the following terms:

     one-electron contribution =     -24.23055548 Ry
     hartree contribution      =      12.01656582 Ry
     xc contribution           =      -7.59372826 Ry
     ewald contribution        =       0.88693575 Ry

     total energy              =     -18.92068408 Ry
     Harris-Foulkes estimate   =     -18.92068406 Ry
     estimated scf accuracy    <       0.00000001 Ry

     iteration # 17     ecut=    18.00 Ry     beta=0.30
     Davidson diagonalization with overlap
     ethr =  1.71E-10,  avg # of iterations =  2.0

     negative rho (up, down):  7.706E-02 0.000E+00

     total cpu time spent up to now is        0.9 secs

     The total energy is the sum of the following terms:

     one-electron contribution =     -24.23075616 Ry
     hartree contribution      =      12.01662711 Ry
     xc contribution           =      -7.59370523 Ry
     ewald contribution        =       0.88693575 Ry

     total energy              =     -18.92068402 Ry
     Harris-Foulkes estimate   =     -18.92068409 Ry
     estimated scf accuracy    <       0.00000004 Ry

     iteration # 18     ecut=    18.00 Ry     beta=0.30
     Davidson diagonalization with overlap
     ethr =  1.71E-10,  avg # of iterations =  2.0

     negative rho (up, down):  7.706E-02 0.000E+00

     total cpu time spent up to now is        1.0 secs

     The total energy is the sum of the following terms:

     one-electron contribution =     -24.23062660 Ry
     hartree contribution      =      12.01659286 Ry
     xc contribution           =      -7.59366223 Ry
     ewald contribution        =       0.88693575 Ry

     total energy              =     -18.92068401 Ry
     Harris-Foulkes estimate   =     -18.92068403 Ry
     estimated scf accuracy    <          3.9E-09 Ry

     iteration # 19     ecut=    18.00 Ry     beta=0.30
     Davidson diagonalization with overlap
     ethr =  4.89E-11,  avg # of iterations =  2.0

     negative rho (up, down):  7.706E-02 0.000E+00

     total cpu time spent up to now is        1.0 secs

     The total energy is the sum of the following terms:

     one-electron contribution =     -24.23056818 Ry
     hartree contribution      =      12.01666163 Ry
     xc contribution           =      -7.59369615 Ry
     ewald contribution        =       0.88693575 Ry

     total energy              =     -18.92068401 Ry
     Harris-Foulkes estimate   =     -18.92068401 Ry
     estimated scf accuracy    <          1.3E-09 Ry

     iteration # 20     ecut=    18.00 Ry     beta=0.30
     Davidson diagonalization with overlap
     ethr =  1.59E-11,  avg # of iterations =  2.0

     negative rho (up, down):  7.706E-02 0.000E+00

     total cpu time spent up to now is        1.0 secs

     End of self-consistent calculation

          k = 0.0000 0.0000 0.0000 (  1473 PWs)   bands (ev):

   -17.8145 -11.6344 -11.5443 -11.5397

     highest occupied level (ev):   -11.5397

     The total energy is the sum of the following terms:

     one-electron contribution =     -24.23057183 Ry
     hartree contribution      =      12.01664184 Ry
     xc contribution           =      -7.59368978 Ry
     ewald contribution        =       0.88693575 Ry

!    total energy              =     -18.92068402 Ry
     Harris-Foulkes estimate   =     -18.92068401 Ry
     estimated scf accuracy    <          1.4E-11 Ry

     The total energy is the sum of the following terms:

     one-electron contribution =     -24.23057183 Ry
     hartree contribution      =      12.01664184 Ry
     xc contribution           =      -7.59368978 Ry
     ewald contribution        =       0.88693575 Ry
     electric field correction =       0.00000000 Ry

     convergence has been achieved in  20 iterations
 
     Using a distance-based cell
     Adding the potential well
        Amplitude [Ry a.u.] : -1.0000E+00
        Atom selected :           1
        Well size     :  2.6456E+00
 
 
     Using a distance-based cell
     Adding the potential well
        Amplitude [Ry a.u.] : -1.0000E+00
        Atom selected :           1
        Well size     :  2.6456E+00
 
     E field correction :    5.25719987357094       Ry
     #e's   in well     :    2.51439974714189       electrons
     Surplus/deficit electrons    :    -1.51439974714189      electrons
     epcdft_thr                   :    1.000000000000000E-006 electrons
 
     -----------------------------------------------
 
                      SCF converged but...
 
     electron localization condition NOT satisfied
     restarting scf with different applied potential
 
     New field Amp      :  -0.999000000000000       Ry
     charge density from previous step

     Check: negative/imaginary core charge=   -0.000002    0.000000

     negative rho (up, down):  7.706E-02 0.000E+00
 
     Using a distance-based cell
     Adding the potential well
        Amplitude [Ry a.u.] : -9.9900E-01
        Atom selected :           1
        Well size     :  2.6456E+00
 

     total cpu time spent up to now is        1.1 secs

     per-process dynamical memory:     9.1 Mb

     Self-consistent Calculation

     iteration #  1     ecut=    18.00 Ry     beta=0.30
     Davidson diagonalization with overlap
     ethr =  1.59E-11,  avg # of iterations =  6.0

     negative rho (up, down):  7.703E-02 0.000E+00

     total cpu time spent up to now is        1.1 secs

     The total energy is the sum of the following terms:

     one-electron contribution =     -24.22243701 Ry
     hartree contribution      =      12.01554869 Ry
     xc contribution           =      -7.59346022 Ry
     ewald contribution        =       0.88693575 Ry

     total energy              =     -18.91542746 Ry
     Harris-Foulkes estimate   =     -18.91542767 Ry
     estimated scf accuracy    <       0.00000083 Ry

     iteration #  2     ecut=    18.00 Ry     beta=0.30
     Davidson diagonalization with overlap
     ethr =  1.04E-08,  avg # of iterations =  1.0

     negative rho (up, down):  7.701E-02 0.000E+00

     total cpu time spent up to now is        1.1 secs

     The total energy is the sum of the following terms:

     one-electron contribution =     -24.22305617 Ry
     hartree contribution      =      12.01452860 Ry
     xc contribution           =      -7.59325030 Ry
     ewald contribution        =       0.88693575 Ry

     total energy              =     -18.91542747 Ry
     Harris-Foulkes estimate   =     -18.91542750 Ry
     estimated scf accuracy    <       0.00000020 Ry

     iteration #  3     ecut=    18.00 Ry     beta=0.30
     Davidson diagonalization with overlap
     ethr =  2.44E-09,  avg # of iterations =  2.0

     negative rho (up, down):  7.701E-02 0.000E+00

     total cpu time spent up to now is        1.2 secs

     The total energy is the sum of the following terms:

     one-electron contribution =     -24.22361506 Ry
     hartree contribution      =      12.01453164 Ry
     xc contribution           =      -7.59324721 Ry
     ewald contribution        =       0.88693575 Ry

     total energy              =     -18.91542751 Ry
     Harris-Foulkes estimate   =     -18.91542752 Ry
     estimated scf accuracy    <          5.7E-09 Ry

     iteration #  4     ecut=    18.00 Ry     beta=0.30
     Davidson diagonalization with overlap
     ethr =  7.18E-11,  avg # of iterations =  1.0

     negative rho (up, down):  7.702E-02 0.000E+00

     total cpu time spent up to now is        1.2 secs

     The total energy is the sum of the following terms:

     one-electron contribution =     -24.22361135 Ry
     hartree contribution      =      12.01448218 Ry
     xc contribution           =      -7.59321363 Ry
     ewald contribution        =       0.88693575 Ry

     total energy              =     -18.91542749 Ry
     Harris-Foulkes estimate   =     -18.91542751 Ry
     estimated scf accuracy    <          4.3E-09 Ry

     iteration #  5     ecut=    18.00 Ry     beta=0.30
     Davidson diagonalization with overlap
     ethr =  5.40E-11,  avg # of iterations =  2.0

     negative rho (up, down):  7.702E-02 0.000E+00

     total cpu time spent up to now is        1.2 secs

     The total energy is the sum of the following terms:

     one-electron contribution =     -24.22357492 Ry
     hartree contribution      =      12.01442264 Ry
     xc contribution           =      -7.59319188 Ry
     ewald contribution        =       0.88693575 Ry

     total energy              =     -18.91542749 Ry
     Harris-Foulkes estimate   =     -18.91542749 Ry
     estimated scf accuracy    <          3.0E-10 Ry

     iteration #  6     ecut=    18.00 Ry     beta=0.30
     Davidson diagonalization with overlap
     ethr =  3.79E-12,  avg # of iterations =  3.0

     negative rho (up, down):  7.702E-02 0.000E+00

     total cpu time spent up to now is        1.3 secs

     End of self-consistent calculation

          k = 0.0000 0.0000 0.0000 (  1473 PWs)   bands (ev):

   -17.8083 -11.6292 -11.5393 -11.5347

     highest occupied level (ev):   -11.5347

     The total energy is the sum of the following terms:

     one-electron contribution =     -24.22358085 Ry
     hartree contribution      =      12.01440807 Ry
     xc contribution           =      -7.59319047 Ry
     ewald contribution        =       0.88693575 Ry

!    total energy              =     -18.91542749 Ry
     Harris-Foulkes estimate   =     -18.91542749 Ry
     estimated scf accuracy    <          7.3E-11 Ry

     The total energy is the sum of the following terms:

     one-electron contribution =     -24.22358085 Ry
     hartree contribution      =      12.01440807 Ry
     xc contribution           =      -7.59319047 Ry
     ewald contribution        =       0.88693575 Ry
     electric field correction =       0.00000000 Ry

     convergence has been achieved in   6 iterations
 
     Using a distance-based cell
     Adding the potential well
        Amplitude [Ry a.u.] : -9.9900E-01
        Atom selected :           1
        Well size     :  2.6456E+00
 
 
     Using a distance-based cell
     Adding the potential well
        Amplitude [Ry a.u.] : -9.9900E-01
        Atom selected :           1
        Well size     :  2.6456E+00
 
     E field correction :    5.25090063948891       Ry
     #e's   in well     :    2.51231359257037       electrons
     Surplus/deficit electrons    :    -1.51231359257037      electrons
     epcdft_thr                   :    1.000000000000000E-006 electrons
 
     -----------------------------------------------
 
                      SCF converged but...
 
     electron localization condition NOT satisfied
     restarting scf with different applied potential
 
     New field Amp      :  -0.274071170077476       Ry
     charge density from previous step

     Check: negative/imaginary core charge=   -0.000002    0.000000

     negative rho (up, down):  7.702E-02 0.000E+00
 
     Using a distance-based cell
     Adding the potential well
        Amplitude [Ry a.u.] : -2.7407E-01
        Atom selected :           1
        Well size     :  2.6456E+00
 

     total cpu time spent up to now is        1.3 secs

     per-process dynamical memory:     9.1 Mb

     Self-consistent Calculation

     iteration #  1     ecut=    18.00 Ry     beta=0.30
     Davidson diagonalization with overlap
     ethr =  3.79E-12,  avg # of iterations = 12.0

     negative rho (up, down):  5.628E-02 0.000E+00

     total cpu time spent up to now is        1.4 secs

     The total energy is the sum of the following terms:

     one-electron contribution =     -18.24857469 Ry
     hartree contribution      =      11.03132591 Ry
     xc contribution           =      -7.37534750 Ry
     ewald contribution        =       0.88693575 Ry

     total energy              =     -15.40431498 Ry
     Harris-Foulkes estimate   =     -15.61469758 Ry
     estimated scf accuracy    <       0.57516080 Ry

     iteration #  2     ecut=    18.00 Ry     beta=0.30
     Davidson diagonalization with overlap
     ethr =  7.19E-03,  avg # of iterations =  1.0

     negative rho (up, down):  4.491E-02 0.000E+00

     total cpu time spent up to now is        1.4 secs

     The total energy is the sum of the following terms:

     one-electron contribution =     -18.93801393 Ry
     hartree contribution      =      10.35092298 Ry
     xc contribution           =      -7.23530554 Ry
     ewald contribution        =       0.88693575 Ry

     total energy              =     -15.37180450 Ry
     Harris-Foulkes estimate   =     -15.43606873 Ry
     estimated scf accuracy    <       0.11559388 Ry

     iteration #  3     ecut=    18.00 Ry     beta=0.30
     Davidson diagonalization with overlap
     ethr =  1.44E-03,  avg # of iterations =  2.0

     negative rho (up, down):  4.576E-02 0.000E+00

     total cpu time spent up to now is        1.4 secs

     The total energy is the sum of the following terms:

     one-electron contribution =     -19.41435817 Ry
     hartree contribution      =      10.35710225 Ry
     xc contribution           =      -7.23321533 Ry
     ewald contribution        =       0.88693575 Ry

     total energy              =     -15.39686234 Ry
     Harris-Foulkes estimate   =     -15.39701710 Ry
     estimated scf accuracy    <       0.00109485 Ry

     iteration #  4     ecut=    18.00 Ry     beta=0.30
     Davidson diagonalization with overlap
     ethr =  1.37E-05,  avg # of iterations =  1.0

     negative rho (up, down):  4.875E-02 0.000E+00

     total cpu time spent up to now is        1.5 secs

     The total energy is the sum of the following terms:

     one-electron contribution =     -19.40600375 Ry
     hartree contribution      =      10.33402951 Ry
     xc contribution           =      -7.21362016 Ry
     ewald contribution        =       0.88693575 Ry

     total energy              =     -15.39680219 Ry
     Harris-Foulkes estimate   =     -15.39693973 Ry
     estimated scf accuracy    <       0.00063617 Ry

     iteration #  5     ecut=    18.00 Ry     beta=0.30
     Davidson diagonalization with overlap
     ethr =  7.95E-06,  avg # of iterations =  2.0

     negative rho (up, down):  4.883E-02 0.000E+00

     total cpu time spent up to now is        1.5 secs

     The total energy is the sum of the following terms:

     one-electron contribution =     -19.38670745 Ry
     hartree contribution      =      10.31992575 Ry
     xc contribution           =      -7.21060294 Ry
     ewald contribution        =       0.88693575 Ry

     total energy              =     -15.39690290 Ry
     Harris-Foulkes estimate   =     -15.39693925 Ry
     estimated scf accuracy    <       0.00009694 Ry

     iteration #  6     ecut=    18.00 Ry     beta=0.30
     Davidson diagonalization with overlap
     ethr =  1.21E-06,  avg # of iterations =  2.0

     negative rho (up, down):  4.890E-02 0.000E+00

     total cpu time spent up to now is        1.5 secs

     The total energy is the sum of the following terms:

     one-electron contribution =     -19.39642937 Ry
     hartree contribution      =      10.32511667 Ry
     xc contribution           =      -7.21287993 Ry
     ewald contribution        =       0.88693575 Ry

     total energy              =     -15.39691105 Ry
     Harris-Foulkes estimate   =     -15.39691501 Ry
     estimated scf accuracy    <       0.00001565 Ry

     iteration #  7     ecut=    18.00 Ry     beta=0.30
     Davidson diagonalization with overlap
     ethr =  1.96E-07,  avg # of iterations =  1.0

     negative rho (up, down):  4.892E-02 0.000E+00

     total cpu time spent up to now is        1.6 secs

     The total energy is the sum of the following terms:

     one-electron contribution =     -19.39544649 Ry
     hartree contribution      =      10.32589989 Ry
     xc contribution           =      -7.21366157 Ry
     ewald contribution        =       0.88693575 Ry

     total energy              =     -15.39691005 Ry
     Harris-Foulkes estimate   =     -15.39691159 Ry
     estimated scf accuracy    <       0.00000465 Ry

     iteration #  8     ecut=    18.00 Ry     beta=0.30
     Davidson diagonalization with overlap
     ethr =  5.81E-08,  avg # of iterations =  2.0

     negative rho (up, down):  4.892E-02 0.000E+00

     total cpu time spent up to now is        1.6 secs

     The total energy is the sum of the following terms:

     one-electron contribution =     -19.39679140 Ry
     hartree contribution      =      10.32659409 Ry
     xc contribution           =      -7.21388429 Ry
     ewald contribution        =       0.88693575 Ry

     total energy              =     -15.39691054 Ry
     Harris-Foulkes estimate   =     -15.39691057 Ry
     estimated scf accuracy    <       0.00000032 Ry

     iteration #  9     ecut=    18.00 Ry     beta=0.30
     Davidson diagonalization with overlap
     ethr =  4.05E-09,  avg # of iterations =  2.0

     negative rho (up, down):  4.892E-02 0.000E+00

     total cpu time spent up to now is        1.7 secs

     The total energy is the sum of the following terms:

     one-electron contribution =     -19.39647268 Ry
     hartree contribution      =      10.32715166 Ry
     xc contribution           =      -7.21422851 Ry
     ewald contribution        =       0.88693575 Ry

     total energy              =     -15.39691049 Ry
     Harris-Foulkes estimate   =     -15.39691057 Ry
     estimated scf accuracy    <       0.00000026 Ry

     iteration # 10     ecut=    18.00 Ry     beta=0.30
     Davidson diagonalization with overlap
     ethr =  3.25E-09,  avg # of iterations =  2.0

     negative rho (up, down):  4.892E-02 0.000E+00

     total cpu time spent up to now is        1.7 secs

     The total energy is the sum of the following terms:

     one-electron contribution =     -19.39659944 Ry
     hartree contribution      =      10.32717734 Ry
     xc contribution           =      -7.21426159 Ry
     ewald contribution        =       0.88693575 Ry

     total energy              =     -15.39691052 Ry
     Harris-Foulkes estimate   =     -15.39691051 Ry
     estimated scf accuracy    <          8.3E-09 Ry

     iteration # 11     ecut=    18.00 Ry     beta=0.30
     Davidson diagonalization with overlap
     ethr =  1.03E-10,  avg # of iterations =  3.0

     negative rho (up, down):  4.892E-02 0.000E+00

     total cpu time spent up to now is        1.7 secs

     The total energy is the sum of the following terms:

     one-electron contribution =     -19.39668077 Ry
     hartree contribution      =      10.32704319 Ry
     xc contribution           =      -7.21421765 Ry
     ewald contribution        =       0.88693575 Ry

     total energy              =     -15.39691051 Ry
     Harris-Foulkes estimate   =     -15.39691052 Ry
     estimated scf accuracy    <          2.2E-09 Ry

     iteration # 12     ecut=    18.00 Ry     beta=0.30
     Davidson diagonalization with overlap
     ethr =  2.81E-11,  avg # of iterations =  2.0

     negative rho (up, down):  4.892E-02 0.000E+00

     total cpu time spent up to now is        1.8 secs

     The total energy is the sum of the following terms:

     one-electron contribution =     -19.39673998 Ry
     hartree contribution      =      10.32704884 Ry
     xc contribution           =      -7.21420829 Ry
     ewald contribution        =       0.88693575 Ry

     total energy              =     -15.39691051 Ry
     Harris-Foulkes estimate   =     -15.39691051 Ry
     estimated scf accuracy    <          1.7E-09 Ry

     iteration # 13     ecut=    18.00 Ry     beta=0.30
     Davidson diagonalization with overlap
     ethr =  2.08E-11,  avg # of iterations =  1.0

     negative rho (up, down):  4.892E-02 0.000E+00

     total cpu time spent up to now is        1.8 secs

     The total energy is the sum of the following terms:

     one-electron contribution =     -19.39671878 Ry
     hartree contribution      =      10.32706747 Ry
     xc contribution           =      -7.21421133 Ry
     ewald contribution        =       0.88693575 Ry

     total energy              =     -15.39691050 Ry
     Harris-Foulkes estimate   =     -15.39691051 Ry
     estimated scf accuracy    <          2.8E-10 Ry

     iteration # 14     ecut=    18.00 Ry     beta=0.30
     Davidson diagonalization with overlap
     ethr =  3.47E-12,  avg # of iterations =  2.0

     negative rho (up, down):  4.892E-02 0.000E+00

     total cpu time spent up to now is        1.8 secs

     End of self-consistent calculation

          k = 0.0000 0.0000 0.0000 (  1473 PWs)   bands (ev):

   -13.8877  -8.5286  -8.5054  -8.5004

     highest occupied level (ev):    -8.5004

     The total energy is the sum of the following terms:

     one-electron contribution =     -19.39670130 Ry
     hartree contribution      =      10.32706586 Ry
     xc contribution           =      -7.21421081 Ry
     ewald contribution        =       0.88693575 Ry

!    total energy              =     -15.39691050 Ry
     Harris-Foulkes estimate   =     -15.39691050 Ry
     estimated scf accuracy    <          9.7E-12 Ry

     The total energy is the sum of the following terms:

     one-electron contribution =     -19.39670130 Ry
     hartree contribution      =      10.32706586 Ry
     xc contribution           =      -7.21421081 Ry
     ewald contribution        =       0.88693575 Ry
     electric field correction =       0.00000000 Ry

     convergence has been achieved in  14 iterations
 
     Using a distance-based cell
     Adding the potential well
        Amplitude [Ry a.u.] : -2.7407E-01
        Atom selected :           1
        Well size     :  2.6456E+00
 
 
     Using a distance-based cell
     Adding the potential well
        Amplitude [Ry a.u.] : -2.7407E-01
        Atom selected :           1
        Well size     :  2.6456E+00
 
     E field correction :    1.21426716121843       Ry
     #e's   in well     :   0.860962361529494       electrons
     Surplus/deficit electrons    :    0.139037638470506      electrons
     epcdft_thr                   :    1.000000000000000E-006 electrons
 
     -----------------------------------------------
 
                      SCF converged but...
 
     electron localization condition NOT satisfied
     restarting scf with different applied potential
 
     New field Amp      :  -0.301478293619590       Ry
     charge density from previous step

     Check: negative/imaginary core charge=   -0.000002    0.000000

     negative rho (up, down):  4.892E-02 0.000E+00
 
     Using a distance-based cell
     Adding the potential well
        Amplitude [Ry a.u.] : -3.0148E-01
        Atom selected :           1
        Well size     :  2.6456E+00
 

     total cpu time spent up to now is        1.9 secs

     per-process dynamical memory:     9.2 Mb

     Self-consistent Calculation

     iteration #  1     ecut=    18.00 Ry     beta=0.30
     Davidson diagonalization with overlap
     ethr =  3.47E-12,  avg # of iterations =  9.0

     negative rho (up, down):  4.953E-02 0.000E+00

     total cpu time spent up to now is        1.9 secs

     The total energy is the sum of the following terms:

     one-electron contribution =     -19.60798044 Ry
     hartree contribution      =      10.36112963 Ry
     xc contribution           =      -7.22149932 Ry
     ewald contribution        =       0.88693575 Ry

     total energy              =     -15.51880513 Ry
     Harris-Foulkes estimate   =     -15.51914206 Ry
     estimated scf accuracy    <       0.00091221 Ry

     iteration #  2     ecut=    18.00 Ry     beta=0.30
     Davidson diagonalization with overlap
     ethr =  1.14E-05,  avg # of iterations =  1.0

     negative rho (up, down):  5.002E-02 0.000E+00

     total cpu time spent up to now is        1.9 secs

     The total energy is the sum of the following terms:

     one-electron contribution =     -19.58579883 Ry
     hartree contribution      =      10.38904026 Ry
     xc contribution           =      -7.22733313 Ry
     ewald contribution        =       0.88693575 Ry

     total energy              =     -15.51874918 Ry
     Harris-Foulkes estimate   =     -15.51885490 Ry
     estimated scf accuracy    <       0.00018575 Ry

     iteration #  3     ecut=    18.00 Ry     beta=0.30
     Davidson diagonalization with overlap
     ethr =  2.32E-06,  avg # of iterations =  2.0

     negative rho (up, down):  5.001E-02 0.000E+00

     total cpu time spent up to now is        2.0 secs

     The total energy is the sum of the following terms:

     one-electron contribution =     -19.56827766 Ry
     hartree contribution      =      10.38905928 Ry
     xc contribution           =      -7.22742446 Ry
     ewald contribution        =       0.88693575 Ry

     total energy              =     -15.51879116 Ry
     Harris-Foulkes estimate   =     -15.51879140 Ry
     estimated scf accuracy    <       0.00000372 Ry

     iteration #  4     ecut=    18.00 Ry     beta=0.30
     Davidson diagonalization with overlap
     ethr =  4.65E-08,  avg # of iterations =  1.0

     negative rho (up, down):  4.991E-02 0.000E+00

     total cpu time spent up to now is        2.0 secs

     The total energy is the sum of the following terms:

     one-electron contribution =     -19.56841475 Ry
     hartree contribution      =      10.39140326 Ry
     xc contribution           =      -7.22879003 Ry
     ewald contribution        =       0.88693575 Ry

     total energy              =     -15.51879039 Ry
     Harris-Foulkes estimate   =     -15.51879124 Ry
     estimated scf accuracy    <       0.00000296 Ry

     iteration #  5     ecut=    18.00 Ry     beta=0.30
     Davidson diagonalization with overlap
     ethr =  3.70E-08,  avg # of iterations =  2.0

     negative rho (up, down):  4.991E-02 0.000E+00

     total cpu time spent up to now is        2.1 secs

     The total energy is the sum of the following terms:

     one-electron contribution =     -19.56932642 Ry
     hartree contribution      =      10.39212253 Ry
     xc contribution           =      -7.22896286 Ry
     ewald contribution        =       0.88693575 Ry

     total energy              =     -15.51879079 Ry
     Harris-Foulkes estimate   =     -15.51879088 Ry
     estimated scf accuracy    <       0.00000022 Ry

     iteration #  6     ecut=    18.00 Ry     beta=0.30
     Davidson diagonalization with overlap
     ethr =  2.81E-09,  avg # of iterations =  2.0

     negative rho (up, down):  4.991E-02 0.000E+00

     total cpu time spent up to now is        2.1 secs

     The total energy is the sum of the following terms:

     one-electron contribution =     -19.56894091 Ry
     hartree contribution      =      10.39203463 Ry
     xc contribution           =      -7.22890479 Ry
     ewald contribution        =       0.88693575 Ry

     total energy              =     -15.51879079 Ry
     Harris-Foulkes estimate   =     -15.51879081 Ry
     estimated scf accuracy    <       0.00000005 Ry

     iteration #  7     ecut=    18.00 Ry     beta=0.30
     Davidson diagonalization with overlap
     ethr =  6.55E-10,  avg # of iterations =  1.0

     negative rho (up, down):  4.990E-02 0.000E+00

     total cpu time spent up to now is        2.1 secs

     The total energy is the sum of the following terms:

     one-electron contribution =     -19.56890084 Ry
     hartree contribution      =      10.39195246 Ry
     xc contribution           =      -7.22884778 Ry
     ewald contribution        =       0.88693575 Ry

     total energy              =     -15.51879077 Ry
     Harris-Foulkes estimate   =     -15.51879080 Ry
     estimated scf accuracy    <       0.00000001 Ry

     iteration #  8     ecut=    18.00 Ry     beta=0.30
     Davidson diagonalization with overlap
     ethr =  1.86E-10,  avg # of iterations =  2.0

     negative rho (up, down):  4.990E-02 0.000E+00

     total cpu time spent up to now is        2.2 secs

     End of self-consistent calculation

          k = 0.0000 0.0000 0.0000 (  1473 PWs)   bands (ev):

   -14.0171  -8.6244  -8.5986  -8.5940

     highest occupied level (ev):    -8.5940

     The total energy is the sum of the following terms:

     one-electron contribution =     -19.56881119 Ry
     hartree contribution      =      10.39192374 Ry
     xc contribution           =      -7.22883908 Ry
     ewald contribution        =       0.88693575 Ry

!    total energy              =     -15.51879078 Ry
     Harris-Foulkes estimate   =     -15.51879078 Ry
     estimated scf accuracy    <          9.1E-11 Ry

     The total energy is the sum of the following terms:

     one-electron contribution =     -19.56881119 Ry
     hartree contribution      =      10.39192374 Ry
     xc contribution           =      -7.22883908 Ry
     ewald contribution        =       0.88693575 Ry
     electric field correction =       0.00000000 Ry

     convergence has been achieved in   8 iterations
 
     Using a distance-based cell
     Adding the potential well
        Amplitude [Ry a.u.] : -3.0148E-01
        Atom selected :           1
        Well size     :  2.6456E+00
 
 
     Using a distance-based cell
     Adding the potential well
        Amplitude [Ry a.u.] : -3.0148E-01
        Atom selected :           1
        Well size     :  2.6456E+00
 
     E field correction :    1.34572741321352       Ry
     #e's   in well     :   0.927524413492806       electrons
     Surplus/deficit electrons    :    7.247558650719377E-002 electrons
     epcdft_thr                   :    1.000000000000000E-006 electrons
 
     -----------------------------------------------
 
                      SCF converged but...
 
     electron localization condition NOT satisfied
     restarting scf with different applied potential
 
     New field Amp      :  -0.331320332658359       Ry
     charge density from previous step

     Check: negative/imaginary core charge=   -0.000002    0.000000

     negative rho (up, down):  4.990E-02 0.000E+00
 
     Using a distance-based cell
     Adding the potential well
        Amplitude [Ry a.u.] : -3.3132E-01
        Atom selected :           1
        Well size     :  2.6456E+00
 

     total cpu time spent up to now is        2.2 secs

     per-process dynamical memory:     9.2 Mb

     Self-consistent Calculation

     iteration #  1     ecut=    18.00 Ry     beta=0.30
     Davidson diagonalization with overlap
     ethr =  1.86E-10,  avg # of iterations =  7.0

     negative rho (up, down):  5.057E-02 0.000E+00

     total cpu time spent up to now is        2.2 secs

     The total energy is the sum of the following terms:

     one-electron contribution =     -19.79967238 Ry
     hartree contribution      =      10.42891078 Ry
     xc contribution           =      -7.23674323 Ry
     ewald contribution        =       0.88693575 Ry

     total energy              =     -15.65255199 Ry
     Harris-Foulkes estimate   =     -15.65294692 Ry
     estimated scf accuracy    <       0.00106996 Ry

     iteration #  2     ecut=    18.00 Ry     beta=0.30
     Davidson diagonalization with overlap
     ethr =  1.34E-05,  avg # of iterations =  1.0

     negative rho (up, down):  5.111E-02 0.000E+00

     total cpu time spent up to now is        2.3 secs

     The total energy is the sum of the following terms:

     one-electron contribution =     -19.77571492 Ry
     hartree contribution      =      10.45939286 Ry
     xc contribution           =      -7.24310780 Ry
     ewald contribution        =       0.88693575 Ry

     total energy              =     -15.65248515 Ry
     Harris-Foulkes estimate   =     -15.65261002 Ry
     estimated scf accuracy    <       0.00021913 Ry

     iteration #  3     ecut=    18.00 Ry     beta=0.30
     Davidson diagonalization with overlap
     ethr =  2.74E-06,  avg # of iterations =  2.0

     negative rho (up, down):  5.109E-02 0.000E+00

     total cpu time spent up to now is        2.3 secs

     The total energy is the sum of the following terms:

     one-electron contribution =     -19.75663438 Ry
     hartree contribution      =      10.45940276 Ry
     xc contribution           =      -7.24320633 Ry
     ewald contribution        =       0.88693575 Ry

     total energy              =     -15.65253491 Ry
     Harris-Foulkes estimate   =     -15.65253522 Ry
     estimated scf accuracy    <       0.00000452 Ry

     iteration #  4     ecut=    18.00 Ry     beta=0.30
     Davidson diagonalization with overlap
     ethr =  5.65E-08,  avg # of iterations =  1.0

     negative rho (up, down):  5.099E-02 0.000E+00

     total cpu time spent up to now is        2.3 secs

     The total energy is the sum of the following terms:

     one-electron contribution =     -19.75679095 Ry
     hartree contribution      =      10.46196870 Ry
     xc contribution           =      -7.24470789 Ry
     ewald contribution        =       0.88693575 Ry

     total energy              =     -15.65253394 Ry
     Harris-Foulkes estimate   =     -15.65253502 Ry
     estimated scf accuracy    <       0.00000358 Ry

     iteration #  5     ecut=    18.00 Ry     beta=0.30
     Davidson diagonalization with overlap
     ethr =  4.48E-08,  avg # of iterations =  2.0

     negative rho (up, down):  5.099E-02 0.000E+00

     total cpu time spent up to now is        2.4 secs

     The total energy is the sum of the following terms:

     one-electron contribution =     -19.75782356 Ry
     hartree contribution      =      10.46275213 Ry
     xc contribution           =      -7.24488977 Ry
     ewald contribution        =       0.88693575 Ry

     total energy              =     -15.65253442 Ry
     Harris-Foulkes estimate   =     -15.65253454 Ry
     estimated scf accuracy    <       0.00000027 Ry

     iteration #  6     ecut=    18.00 Ry     beta=0.30
     Davidson diagonalization with overlap
     ethr =  3.43E-09,  avg # of iterations =  2.0

     negative rho (up, down):  5.098E-02 0.000E+00

     total cpu time spent up to now is        2.4 secs

     The total energy is the sum of the following terms:

     one-electron contribution =     -19.75736825 Ry
     hartree contribution      =      10.46260668 Ry
     xc contribution           =      -7.24481544 Ry
     ewald contribution        =       0.88693575 Ry

     total energy              =     -15.65253444 Ry
     Harris-Foulkes estimate   =     -15.65253445 Ry
     estimated scf accuracy    <       0.00000006 Ry

     iteration #  7     ecut=    18.00 Ry     beta=0.30
     Davidson diagonalization with overlap
     ethr =  7.14E-10,  avg # of iterations =  1.0

     negative rho (up, down):  5.098E-02 0.000E+00

     total cpu time spent up to now is        2.4 secs

     The total energy is the sum of the following terms:

     one-electron contribution =     -19.75736982 Ry
     hartree contribution      =      10.46254657 Ry
     xc contribution           =      -7.24474904 Ry
     ewald contribution        =       0.88693575 Ry

     total energy              =     -15.65253440 Ry
     Harris-Foulkes estimate   =     -15.65253444 Ry
     estimated scf accuracy    <       0.00000002 Ry

     iteration #  8     ecut=    18.00 Ry     beta=0.30
     Davidson diagonalization with overlap
     ethr =  2.44E-10,  avg # of iterations =  2.0

     negative rho (up, down):  5.098E-02 0.000E+00

     total cpu time spent up to now is        2.5 secs

     The total energy is the sum of the following terms:

     one-electron contribution =     -19.75723274 Ry
     hartree contribution      =      10.46252634 Ry
     xc contribution           =      -7.24475481 Ry
     ewald contribution        =       0.88693575 Ry

     total energy              =     -15.65253441 Ry
     Harris-Foulkes estimate   =     -15.65253441 Ry
     estimated scf accuracy    <          1.0E-09 Ry

     iteration #  9     ecut=    18.00 Ry     beta=0.30
     Davidson diagonalization with overlap
     ethr =  1.31E-11,  avg # of iterations =  2.0

     negative rho (up, down):  5.098E-02 0.000E+00

     total cpu time spent up to now is        2.5 secs

     The total energy is the sum of the following terms:

     one-electron contribution =     -19.75727513 Ry
     hartree contribution      =      10.46255067 Ry
     xc contribution           =      -7.24476014 Ry
     ewald contribution        =       0.88693575 Ry

     total energy              =     -15.65253441 Ry
     Harris-Foulkes estimate   =     -15.65253441 Ry
     estimated scf accuracy    <          1.2E-10 Ry

     iteration # 10     ecut=    18.00 Ry     beta=0.30
     Davidson diagonalization with overlap
     ethr =  1.55E-12,  avg # of iterations =  2.0

     negative rho (up, down):  5.098E-02 0.000E+00

     total cpu time spent up to now is        2.5 secs

     End of self-consistent calculation

          k = 0.0000 0.0000 0.0000 (  1473 PWs)   bands (ev):

   -14.1598  -8.7306  -8.7021  -8.6977

     highest occupied level (ev):    -8.6977

     The total energy is the sum of the following terms:

     one-electron contribution =     -19.75725757 Ry
     hartree contribution      =      10.46254940 Ry
     xc contribution           =      -7.24476200 Ry
     ewald contribution        =       0.88693575 Ry

!    total energy              =     -15.65253442 Ry
     Harris-Foulkes estimate   =     -15.65253441 Ry
     estimated scf accuracy    <          1.8E-11 Ry

     The total energy is the sum of the following terms:

     one-electron contribution =     -19.75725757 Ry
     hartree contribution      =      10.46254940 Ry
     xc contribution           =      -7.24476200 Ry
     ewald contribution        =       0.88693575 Ry
     electric field correction =       0.00000000 Ry

     convergence has been achieved in  10 iterations
 
     Using a distance-based cell
     Adding the potential well
        Amplitude [Ry a.u.] : -3.3132E-01
        Atom selected :           1
        Well size     :  2.6456E+00
 
 
     Using a distance-based cell
     Adding the potential well
        Amplitude [Ry a.u.] : -3.3132E-01
        Atom selected :           1
        Well size     :  2.6456E+00
 
     E field correction :    1.49089258602622       Ry
     #e's   in well     :   0.999704751374583       electrons
     Surplus/deficit electrons    :    2.952486254166331E-004 electrons
     epcdft_thr                   :    1.000000000000000E-006 electrons
 
     -----------------------------------------------
 
                      SCF converged but...
 
     electron localization condition NOT satisfied
     restarting scf with different applied potential
 
     New field Amp      :  -0.331442399432558       Ry
     charge density from previous step

     Check: negative/imaginary core charge=   -0.000002    0.000000

     negative rho (up, down):  5.098E-02 0.000E+00
 
     Using a distance-based cell
     Adding the potential well
        Amplitude [Ry a.u.] : -3.3144E-01
        Atom selected :           1
        Well size     :  2.6456E+00
 

     total cpu time spent up to now is        2.6 secs

     per-process dynamical memory:     9.2 Mb

     Self-consistent Calculation

     iteration #  1     ecut=    18.00 Ry     beta=0.30
     Davidson diagonalization with overlap
     ethr =  1.55E-12,  avg # of iterations =  4.0

     negative rho (up, down):  5.098E-02 0.000E+00

     total cpu time spent up to now is        2.6 secs

     The total energy is the sum of the following terms:

     one-electron contribution =     -19.75821116 Ry
     hartree contribution      =      10.46270357 Ry
     xc contribution           =      -7.24479487 Ry
     ewald contribution        =       0.88693575 Ry

     total energy              =     -15.65308370 Ry
     Harris-Foulkes estimate   =     -15.65308371 Ry
     estimated scf accuracy    <       0.00000002 Ry

     iteration #  2     ecut=    18.00 Ry     beta=0.30
     Davidson diagonalization with overlap
     ethr =  2.31E-10,  avg # of iterations =  1.0

     negative rho (up, down):  5.098E-02 0.000E+00

     total cpu time spent up to now is        2.7 secs

     The total energy is the sum of the following terms:

     one-electron contribution =     -19.75811065 Ry
     hartree contribution      =      10.46282967 Ry
     xc contribution           =      -7.24482091 Ry
     ewald contribution        =       0.88693575 Ry

     total energy              =     -15.65308369 Ry
     Harris-Foulkes estimate   =     -15.65308370 Ry
     estimated scf accuracy    <          3.8E-09 Ry

     iteration #  3     ecut=    18.00 Ry     beta=0.30
     Davidson diagonalization with overlap
     ethr =  4.76E-11,  avg # of iterations =  2.0

     negative rho (up, down):  5.098E-02 0.000E+00

     total cpu time spent up to now is        2.7 secs

     End of self-consistent calculation

          k = 0.0000 0.0000 0.0000 (  1473 PWs)   bands (ev):

   -14.1604  -8.7311  -8.7025  -8.6981

     highest occupied level (ev):    -8.6981

     The total energy is the sum of the following terms:

     one-electron contribution =     -19.75802867 Ry
     hartree contribution      =      10.46283636 Ry
     xc contribution           =      -7.24482714 Ry
     ewald contribution        =       0.88693575 Ry

!    total energy              =     -15.65308369 Ry
     Harris-Foulkes estimate   =     -15.65308369 Ry
     estimated scf accuracy    <          6.8E-11 Ry

     The total energy is the sum of the following terms:

     one-electron contribution =     -19.75802867 Ry
     hartree contribution      =      10.46283636 Ry
     xc contribution           =      -7.24482714 Ry
     ewald contribution        =       0.88693575 Ry
     electric field correction =       0.00000000 Ry

     convergence has been achieved in   3 iterations
 
     Using a distance-based cell
     Adding the potential well
        Amplitude [Ry a.u.] : -3.3144E-01
        Atom selected :           1
        Well size     :  2.6456E+00
 
 
     Using a distance-based cell
     Adding the potential well
        Amplitude [Ry a.u.] : -3.3144E-01
        Atom selected :           1
        Well size     :  2.6456E+00
 
     E field correction :    1.49149014907487       Ry
     #e's   in well     :   0.999996087575718       electrons
     Surplus/deficit electrons    :    3.912424282326299E-006 electrons
     epcdft_thr                   :    1.000000000000000E-006 electrons
 
     -----------------------------------------------
 
                      SCF converged but...
 
     electron localization condition NOT satisfied
     restarting scf with different applied potential
 
     New field Amp      :  -0.331444038696782       Ry
     charge density from previous step

     Check: negative/imaginary core charge=   -0.000002    0.000000

     negative rho (up, down):  5.098E-02 0.000E+00
 
     Using a distance-based cell
     Adding the potential well
        Amplitude [Ry a.u.] : -3.3144E-01
        Atom selected :           1
        Well size     :  2.6456E+00
 

     total cpu time spent up to now is        2.7 secs

     per-process dynamical memory:     9.2 Mb

     Self-consistent Calculation

     iteration #  1     ecut=    18.00 Ry     beta=0.30
     Davidson diagonalization with overlap
     ethr =  4.76E-11,  avg # of iterations =  1.0

     Threshold (ethr) on eigenvalues was too large:
     Diagonalizing with lowered threshold

     Davidson diagonalization with overlap
     ethr =  3.39E-13,  avg # of iterations =  2.0

     negative rho (up, down):  5.098E-02 0.000E+00

     total cpu time spent up to now is        2.8 secs

     End of self-consistent calculation

          k = 0.0000 0.0000 0.0000 (  1473 PWs)   bands (ev):

   -14.1604  -8.7311  -8.7025  -8.6981

     highest occupied level (ev):    -8.6981

     The total energy is the sum of the following terms:

     one-electron contribution =     -19.75805142 Ry
     hartree contribution      =      10.46285426 Ry
     xc contribution           =      -7.24482966 Ry
     ewald contribution        =       0.88693575 Ry

!    total energy              =     -15.65309107 Ry
     Harris-Foulkes estimate   =     -15.65309107 Ry
     estimated scf accuracy    <          4.3E-11 Ry

     The total energy is the sum of the following terms:

     one-electron contribution =     -19.75805142 Ry
     hartree contribution      =      10.46285426 Ry
     xc contribution           =      -7.24482966 Ry
     ewald contribution        =       0.88693575 Ry
     electric field correction =       0.00000000 Ry

     convergence has been achieved in   1 iterations
 
     Using a distance-based cell
     Adding the potential well
        Amplitude [Ry a.u.] : -3.3144E-01
        Atom selected :           1
        Well size     :  2.6456E+00
 
 
     Using a distance-based cell
     Adding the potential well
        Amplitude [Ry a.u.] : -3.3144E-01
        Atom selected :           1
        Well size     :  2.6456E+00
 
     E field correction :    1.49150113917675       Ry
     #e's   in well     :    1.00001789165521       electrons
     Surplus/deficit electrons    :   -1.789165521426384E-005 electrons
     epcdft_thr                   :    1.000000000000000E-006 electrons
 
     -----------------------------------------------
 
                      SCF converged but...
 
     electron localization condition NOT satisfied
     restarting scf with different applied potential
 
     New field Amp      :  -0.331442693574632       Ry
     charge density from previous step

     Check: negative/imaginary core charge=   -0.000002    0.000000

     negative rho (up, down):  5.098E-02 0.000E+00
 
     Using a distance-based cell
     Adding the potential well
        Amplitude [Ry a.u.] : -3.3144E-01
        Atom selected :           1
        Well size     :  2.6456E+00
 

     total cpu time spent up to now is        2.8 secs

     per-process dynamical memory:     9.2 Mb

     Self-consistent Calculation

     iteration #  1     ecut=    18.00 Ry     beta=0.30
     Davidson diagonalization with overlap
     ethr =  3.39E-13,  avg # of iterations =  3.0

     negative rho (up, down):  5.098E-02 0.000E+00

     total cpu time spent up to now is        2.8 secs

     End of self-consistent calculation

          k = 0.0000 0.0000 0.0000 (  1473 PWs)   bands (ev):

   -14.1604  -8.7310  -8.7025  -8.6981

     highest occupied level (ev):    -8.6981

     The total energy is the sum of the following terms:

     one-electron contribution =     -19.75802597 Ry
     hartree contribution      =      10.46283035 Ry
     xc contribution           =      -7.24482515 Ry
     ewald contribution        =       0.88693575 Ry

!    total energy              =     -15.65308502 Ry
     Harris-Foulkes estimate   =     -15.65308502 Ry
     estimated scf accuracy    <          5.1E-11 Ry

     The total energy is the sum of the following terms:

     one-electron contribution =     -19.75802597 Ry
     hartree contribution      =      10.46283035 Ry
     xc contribution           =      -7.24482515 Ry
     ewald contribution        =       0.88693575 Ry
     electric field correction =       0.00000000 Ry

     convergence has been achieved in   1 iterations
 
     Using a distance-based cell
     Adding the potential well
        Amplitude [Ry a.u.] : -3.3144E-01
        Atom selected :           1
        Well size     :  2.6456E+00
 
 
     Using a distance-based cell
     Adding the potential well
        Amplitude [Ry a.u.] : -3.3144E-01
        Atom selected :           1
        Well size     :  2.6456E+00
 
     E field correction :    1.49149085922479       Ry
     #e's   in well     :   0.999992385645661       electrons
     Surplus/deficit electrons    :    7.614354338603135E-006 electrons
     epcdft_thr                   :    1.000000000000000E-006 electrons
 
     -----------------------------------------------
 
                      SCF converged but...
 
     electron localization condition NOT satisfied
     restarting scf with different applied potential
 
     New field Amp      :  -0.331443095136337       Ry
     charge density from previous step

     Check: negative/imaginary core charge=   -0.000002    0.000000

     negative rho (up, down):  5.098E-02 0.000E+00
 
     Using a distance-based cell
     Adding the potential well
        Amplitude [Ry a.u.] : -3.3144E-01
        Atom selected :           1
        Well size     :  2.6456E+00
 

     total cpu time spent up to now is        2.9 secs

     per-process dynamical memory:     9.2 Mb

     Self-consistent Calculation

     iteration #  1     ecut=    18.00 Ry     beta=0.30
     Davidson diagonalization with overlap
     ethr =  3.39E-13,  avg # of iterations =  2.0

     negative rho (up, down):  5.098E-02 0.000E+00

     total cpu time spent up to now is        2.9 secs

     End of self-consistent calculation

          k = 0.0000 0.0000 0.0000 (  1473 PWs)   bands (ev):

   -14.1604  -8.7311  -8.7025  -8.6981

     highest occupied level (ev):    -8.6981

     The total energy is the sum of the following terms:

     one-electron contribution =     -19.75804650 Ry
     hartree contribution      =      10.46285364 Ry
     xc contribution           =      -7.24482971 Ry
     ewald contribution        =       0.88693575 Ry

!    total energy              =     -15.65308682 Ry
     Harris-Foulkes estimate   =     -15.65308683 Ry
     estimated scf accuracy    <          4.6E-11 Ry

     The total energy is the sum of the following terms:

     one-electron contribution =     -19.75804650 Ry
     hartree contribution      =      10.46285364 Ry
     xc contribution           =      -7.24482971 Ry
     ewald contribution        =       0.88693575 Ry
     electric field correction =       0.00000000 Ry

     convergence has been achieved in   1 iterations
 
     Using a distance-based cell
     Adding the potential well
        Amplitude [Ry a.u.] : -3.3144E-01
        Atom selected :           1
        Well size     :  2.6456E+00
 
 
     Using a distance-based cell
     Adding the potential well
        Amplitude [Ry a.u.] : -3.3144E-01
        Atom selected :           1
        Well size     :  2.6456E+00
 
     E field correction :    1.49149667213389       Ry
     #e's   in well     :    1.00001655801804       electrons
     Surplus/deficit electrons    :   -1.655801804245627E-005 electrons
     epcdft_thr                   :    1.000000000000000E-006 electrons
 
     -----------------------------------------------
 
                      SCF converged but...
 
     electron localization condition NOT satisfied
     restarting scf with different applied potential
 
     New field Amp      :  -0.331442820067516       Ry
     charge density from previous step

     Check: negative/imaginary core charge=   -0.000002    0.000000

     negative rho (up, down):  5.098E-02 0.000E+00
 
     Using a distance-based cell
     Adding the potential well
        Amplitude [Ry a.u.] : -3.3144E-01
        Atom selected :           1
        Well size     :  2.6456E+00
 

     total cpu time spent up to now is        2.9 secs

     per-process dynamical memory:     9.2 Mb

     Self-consistent Calculation

     iteration #  1     ecut=    18.00 Ry     beta=0.30
     Davidson diagonalization with overlap
     ethr =  3.39E-13,  avg # of iterations =  2.0

     negative rho (up, down):  5.098E-02 0.000E+00

     total cpu time spent up to now is        3.0 secs

     End of self-consistent calculation

          k = 0.0000 0.0000 0.0000 (  1473 PWs)   bands (ev):

   -14.1604  -8.7310  -8.7025  -8.6981

     highest occupied level (ev):    -8.6981

     The total energy is the sum of the following terms:

     one-electron contribution =     -19.75802785 Ry
     hartree contribution      =      10.46283194 Ry
     xc contribution           =      -7.24482544 Ry
     ewald contribution        =       0.88693575 Ry

!    total energy              =     -15.65308559 Ry
     Harris-Foulkes estimate   =     -15.65308559 Ry
     estimated scf accuracy    <          3.9E-11 Ry

     The total energy is the sum of the following terms:

     one-electron contribution =     -19.75802785 Ry
     hartree contribution      =      10.46283194 Ry
     xc contribution           =      -7.24482544 Ry
     ewald contribution        =       0.88693575 Ry
     electric field correction =       0.00000000 Ry

     convergence has been achieved in   1 iterations
 
     Using a distance-based cell
     Adding the potential well
        Amplitude [Ry a.u.] : -3.3144E-01
        Atom selected :           1
        Well size     :  2.6456E+00
 
 
     Using a distance-based cell
     Adding the potential well
        Amplitude [Ry a.u.] : -3.3144E-01
        Atom selected :           1
        Well size     :  2.6456E+00
 
     E field correction :    1.49149172012702       Ry
     #e's   in well     :   0.999994145736498       electrons
     Surplus/deficit electrons    :    5.854263501969825E-006 electrons
     epcdft_thr                   :    1.000000000000000E-006 electrons
 
     -----------------------------------------------
 
                      SCF converged but...
 
     electron localization condition NOT satisfied
     restarting scf with different applied potential
 
     New field Amp      :  -0.331442891917647       Ry
     charge density from previous step

     Check: negative/imaginary core charge=   -0.000002    0.000000

     negative rho (up, down):  5.098E-02 0.000E+00
 
     Using a distance-based cell
     Adding the potential well
        Amplitude [Ry a.u.] : -3.3144E-01
        Atom selected :           1
        Well size     :  2.6456E+00
 

     total cpu time spent up to now is        3.0 secs

     per-process dynamical memory:     9.2 Mb

     Self-consistent Calculation

     iteration #  1     ecut=    18.00 Ry     beta=0.30
     Davidson diagonalization with overlap
     ethr =  3.39E-13,  avg # of iterations =  2.0

     negative rho (up, down):  5.098E-02 0.000E+00

     total cpu time spent up to now is        3.0 secs

     End of self-consistent calculation

          k = 0.0000 0.0000 0.0000 (  1473 PWs)   bands (ev):

   -14.1604  -8.7311  -8.7025  -8.6981

     highest occupied level (ev):    -8.6981

     The total energy is the sum of the following terms:

     one-electron contribution =     -19.75804374 Ry
     hartree contribution      =      10.46285134 Ry
     xc contribution           =      -7.24482926 Ry
     ewald contribution        =       0.88693575 Ry

!    total energy              =     -15.65308591 Ry
     Harris-Foulkes estimate   =     -15.65308591 Ry
     estimated scf accuracy    <          3.1E-11 Ry

     The total energy is the sum of the following terms:

     one-electron contribution =     -19.75804374 Ry
     hartree contribution      =      10.46285134 Ry
     xc contribution           =      -7.24482926 Ry
     ewald contribution        =       0.88693575 Ry
     electric field correction =       0.00000000 Ry

     convergence has been achieved in   1 iterations
 
     Using a distance-based cell
     Adding the potential well
        Amplitude [Ry a.u.] : -3.3144E-01
        Atom selected :           1
        Well size     :  2.6456E+00
 
 
     Using a distance-based cell
     Adding the potential well
        Amplitude [Ry a.u.] : -3.3144E-01
        Atom selected :           1
        Well size     :  2.6456E+00
 
     E field correction :    1.49149535971216       Ry
     #e's   in well     :    1.00001415678423       electrons
     Surplus/deficit electrons    :   -1.415678423377642E-005 electrons
     epcdft_thr                   :    1.000000000000000E-006 electrons
 
     -----------------------------------------------
 
                      SCF converged but...
 
     electron localization condition NOT satisfied
     restarting scf with different applied potential
 
     New field Amp      :  -0.331442841087385       Ry
     charge density from previous step

     Check: negative/imaginary core charge=   -0.000002    0.000000

     negative rho (up, down):  5.098E-02 0.000E+00
 
     Using a distance-based cell
     Adding the potential well
        Amplitude [Ry a.u.] : -3.3144E-01
        Atom selected :           1
        Well size     :  2.6456E+00
 

     total cpu time spent up to now is        3.1 secs

     per-process dynamical memory:     9.2 Mb

     Self-consistent Calculation

     iteration #  1     ecut=    18.00 Ry     beta=0.30
     Davidson diagonalization with overlap
     ethr =  3.39E-13,  avg # of iterations =  2.0

     negative rho (up, down):  5.098E-02 0.000E+00

     total cpu time spent up to now is        3.1 secs

     End of self-consistent calculation

          k = 0.0000 0.0000 0.0000 (  1473 PWs)   bands (ev):

   -14.1604  -8.7310  -8.7025  -8.6981

     highest occupied level (ev):    -8.6981

     The total energy is the sum of the following terms:

     one-electron contribution =     -19.75802958 Ry
     hartree contribution      =      10.46283396 Ry
     xc contribution           =      -7.24482581 Ry
     ewald contribution        =       0.88693575 Ry

!    total energy              =     -15.65308568 Ry
     Harris-Foulkes estimate   =     -15.65308568 Ry
     estimated scf accuracy    <          2.5E-11 Ry

     The total energy is the sum of the following terms:

     one-electron contribution =     -19.75802958 Ry
     hartree contribution      =      10.46283396 Ry
     xc contribution           =      -7.24482581 Ry
     ewald contribution        =       0.88693575 Ry
     electric field correction =       0.00000000 Ry

     convergence has been achieved in   1 iterations
 
     Using a distance-based cell
     Adding the potential well
        Amplitude [Ry a.u.] : -3.3144E-01
        Atom selected :           1
        Well size     :  2.6456E+00
 
 
     Using a distance-based cell
     Adding the potential well
        Amplitude [Ry a.u.] : -3.3144E-01
        Atom selected :           1
        Well size     :  2.6456E+00
 
     E field correction :    1.49149216805013       Ry
     #e's   in well     :   0.999996277831184       electrons
     Surplus/deficit electrons    :    3.722168816278071E-006 electrons
     epcdft_thr                   :    1.000000000000000E-006 electrons
 
     -----------------------------------------------
 
                      SCF converged but...
 
     electron localization condition NOT satisfied
     restarting scf with different applied potential
 
     New field Amp      :  -0.331442851669594       Ry
     charge density from previous step

     Check: negative/imaginary core charge=   -0.000002    0.000000

     negative rho (up, down):  5.098E-02 0.000E+00
 
     Using a distance-based cell
     Adding the potential well
        Amplitude [Ry a.u.] : -3.3144E-01
        Atom selected :           1
        Well size     :  2.6456E+00
 

     total cpu time spent up to now is        3.1 secs

     per-process dynamical memory:     9.2 Mb

     Self-consistent Calculation

     iteration #  1     ecut=    18.00 Ry     beta=0.30
     Davidson diagonalization with overlap
     ethr =  3.39E-13,  avg # of iterations =  2.0

     negative rho (up, down):  5.098E-02 0.000E+00

     total cpu time spent up to now is        3.2 secs

     End of self-consistent calculation

          k = 0.0000 0.0000 0.0000 (  1473 PWs)   bands (ev):

   -14.1604  -8.7311  -8.7025  -8.6981

     highest occupied level (ev):    -8.6981

     The total energy is the sum of the following terms:

     one-electron contribution =     -19.75804190 Ry
     hartree contribution      =      10.46284936 Ry
     xc contribution           =      -7.24482894 Ry
     ewald contribution        =       0.88693575 Ry

!    total energy              =     -15.65308573 Ry
     Harris-Foulkes estimate   =     -15.65308573 Ry
     estimated scf accuracy    <          1.9E-11 Ry

     The total energy is the sum of the following terms:

     one-electron contribution =     -19.75804190 Ry
     hartree contribution      =      10.46284936 Ry
     xc contribution           =      -7.24482894 Ry
     ewald contribution        =       0.88693575 Ry
     electric field correction =       0.00000000 Ry

     convergence has been achieved in   1 iterations
 
     Using a distance-based cell
     Adding the potential well
        Amplitude [Ry a.u.] : -3.3144E-01
        Atom selected :           1
        Well size     :  2.6456E+00
 
 
     Using a distance-based cell
     Adding the potential well
        Amplitude [Ry a.u.] : -3.3144E-01
        Atom selected :           1
        Well size     :  2.6456E+00
 
     E field correction :    1.49149481217130       Ry
     #e's   in well     :    1.00001194569810       electrons
     Surplus/deficit electrons    :   -1.194569810136770E-005 electrons
     epcdft_thr                   :    1.000000000000000E-006 electrons
 
     -----------------------------------------------
 
                      SCF converged but...
 
     electron localization condition NOT satisfied
     restarting scf with different applied potential
 
     New field Amp      :  -0.331442843601369       Ry
     charge density from previous step

     Check: negative/imaginary core charge=   -0.000002    0.000000

     negative rho (up, down):  5.098E-02 0.000E+00
 
     Using a distance-based cell
     Adding the potential well
        Amplitude [Ry a.u.] : -3.3144E-01
        Atom selected :           1
        Well size     :  2.6456E+00
 

     total cpu time spent up to now is        3.2 secs

     per-process dynamical memory:     9.2 Mb

     Self-consistent Calculation

     iteration #  1     ecut=    18.00 Ry     beta=0.30
     Davidson diagonalization with overlap
     ethr =  3.39E-13,  avg # of iterations =  2.0

     negative rho (up, down):  5.098E-02 0.000E+00

     total cpu time spent up to now is        3.2 secs

     End of self-consistent calculation

          k = 0.0000 0.0000 0.0000 (  1473 PWs)   bands (ev):

   -14.1604  -8.7310  -8.7025  -8.6981

     highest occupied level (ev):    -8.6981

     The total energy is the sum of the following terms:

     one-electron contribution =     -19.75803114 Ry
     hartree contribution      =      10.46283584 Ry
     xc contribution           =      -7.24482615 Ry
     ewald contribution        =       0.88693575 Ry

!    total energy              =     -15.65308569 Ry
     Harris-Foulkes estimate   =     -15.65308569 Ry
     estimated scf accuracy    <          1.4E-11 Ry

     The total energy is the sum of the following terms:

     one-electron contribution =     -19.75803114 Ry
     hartree contribution      =      10.46283584 Ry
     xc contribution           =      -7.24482615 Ry
     ewald contribution        =       0.88693575 Ry
     electric field correction =       0.00000000 Ry

     convergence has been achieved in   1 iterations
 
     Using a distance-based cell
     Adding the potential well
        Amplitude [Ry a.u.] : -3.3144E-01
        Atom selected :           1
        Well size     :  2.6456E+00
 
 
     Using a distance-based cell
     Adding the potential well
        Amplitude [Ry a.u.] : -3.3144E-01
        Atom selected :           1
        Well size     :  2.6456E+00
 
     E field correction :    1.49149251386117       Ry
     #e's   in well     :   0.999998296267399       electrons
     Surplus/deficit electrons    :    1.703732601221475E-006 electrons
     epcdft_thr                   :    1.000000000000000E-006 electrons
 
     -----------------------------------------------
 
                      SCF converged but...
 
     electron localization condition NOT satisfied
     restarting scf with different applied potential
 
     New field Amp      :  -0.331442844608451       Ry
     charge density from previous step

     Check: negative/imaginary core charge=   -0.000002    0.000000

     negative rho (up, down):  5.098E-02 0.000E+00
 
     Using a distance-based cell
     Adding the potential well
        Amplitude [Ry a.u.] : -3.3144E-01
        Atom selected :           1
        Well size     :  2.6456E+00
 

     total cpu time spent up to now is        3.3 secs

     per-process dynamical memory:     9.2 Mb

     Self-consistent Calculation

     iteration #  1     ecut=    18.00 Ry     beta=0.30
     Davidson diagonalization with overlap
     ethr =  3.39E-13,  avg # of iterations =  2.0

     negative rho (up, down):  5.098E-02 0.000E+00

     total cpu time spent up to now is        3.3 secs

     End of self-consistent calculation

          k = 0.0000 0.0000 0.0000 (  1473 PWs)   bands (ev):

   -14.1604  -8.7311  -8.7025  -8.6981

     highest occupied level (ev):    -8.6981

     The total energy is the sum of the following terms:

     one-electron contribution =     -19.75804047 Ry
     hartree contribution      =      10.46284754 Ry
     xc contribution           =      -7.24482852 Ry
     ewald contribution        =       0.88693575 Ry

!    total energy              =     -15.65308570 Ry
     Harris-Foulkes estimate   =     -15.65308570 Ry
     estimated scf accuracy    <          1.1E-11 Ry

     The total energy is the sum of the following terms:

     one-electron contribution =     -19.75804047 Ry
     hartree contribution      =      10.46284754 Ry
     xc contribution           =      -7.24482852 Ry
     ewald contribution        =       0.88693575 Ry
     electric field correction =       0.00000000 Ry

     convergence has been achieved in   1 iterations
 
     Using a distance-based cell
     Adding the potential well
        Amplitude [Ry a.u.] : -3.3144E-01
        Atom selected :           1
        Well size     :  2.6456E+00
 
 
     Using a distance-based cell
     Adding the potential well
        Amplitude [Ry a.u.] : -3.3144E-01
        Atom selected :           1
        Well size     :  2.6456E+00
 
     E field correction :    1.49149449045678       Ry
     #e's   in well     :    1.00001019613954       electrons
     Surplus/deficit electrons    :   -1.019613954422738E-005 electrons
     epcdft_thr                   :    1.000000000000000E-006 electrons
 
     -----------------------------------------------
 
                      SCF converged but...
 
     electron localization condition NOT satisfied
     restarting scf with different applied potential
 
     New field Amp      :  -0.331442843745555       Ry
     charge density from previous step

     Check: negative/imaginary core charge=   -0.000002    0.000000

     negative rho (up, down):  5.098E-02 0.000E+00
 
     Using a distance-based cell
     Adding the potential well
        Amplitude [Ry a.u.] : -3.3144E-01
        Atom selected :           1
        Well size     :  2.6456E+00
 

     total cpu time spent up to now is        3.3 secs

     per-process dynamical memory:     9.2 Mb

     Self-consistent Calculation

     iteration #  1     ecut=    18.00 Ry     beta=0.30
     Davidson diagonalization with overlap
     ethr =  3.39E-13,  avg # of iterations =  2.0

     negative rho (up, down):  5.098E-02 0.000E+00

     total cpu time spent up to now is        3.4 secs

     End of self-consistent calculation

          k = 0.0000 0.0000 0.0000 (  1473 PWs)   bands (ev):

   -14.1604  -8.7311  -8.7025  -8.6981

     highest occupied level (ev):    -8.6981

     The total energy is the sum of the following terms:

     one-electron contribution =     -19.75803229 Ry
     hartree contribution      =      10.46283723 Ry
     xc contribution           =      -7.24482639 Ry
     ewald contribution        =       0.88693575 Ry

!    total energy              =     -15.65308569 Ry
     Harris-Foulkes estimate   =     -15.65308569 Ry
     estimated scf accuracy    <          8.2E-12 Ry

     The total energy is the sum of the following terms:

     one-electron contribution =     -19.75803229 Ry
     hartree contribution      =      10.46283723 Ry
     xc contribution           =      -7.24482639 Ry
     ewald contribution        =       0.88693575 Ry
     electric field correction =       0.00000000 Ry

     convergence has been achieved in   1 iterations
 
     Using a distance-based cell
     Adding the potential well
        Amplitude [Ry a.u.] : -3.3144E-01
        Atom selected :           1
        Well size     :  2.6456E+00
 
 
     Using a distance-based cell
     Adding the potential well
        Amplitude [Ry a.u.] : -3.3144E-01
        Atom selected :           1
        Well size     :  2.6456E+00
 
     E field correction :    1.49149276739033       Ry
     #e's   in well     :   0.999999822203598       electrons

     Writing output data file si.save
 
     init_run     :      0.18s CPU      0.19s WALL (       1 calls)
     electrons    :      2.61s CPU      2.71s WALL (      16 calls)
     update_pot   :      0.14s CPU      0.16s WALL (      15 calls)

     Called by init_run:
     wfcinit      :      0.00s CPU      0.01s WALL (       1 calls)
     potinit      :      0.01s CPU      0.01s WALL (       1 calls)

     Called by electrons:
     c_bands      :      0.39s CPU      0.41s WALL (      72 calls)
     sum_band     :      0.85s CPU      0.85s WALL (      72 calls)
     v_of_rho     :      0.49s CPU      0.51s WALL (      87 calls)
     newd         :      0.98s CPU      0.96s WALL (      87 calls)
     mix_rho      :      0.06s CPU      0.07s WALL (      72 calls)

     Called by c_bands:
     init_us_2    :      0.02s CPU      0.02s WALL (     145 calls)
     regterg      :      0.34s CPU      0.37s WALL (      72 calls)

     Called by *egterg:
     h_psi        :      0.16s CPU      0.20s WALL (     228 calls)
     s_psi        :      0.02s CPU      0.01s WALL (     228 calls)
     g_psi        :      0.02s CPU      0.00s WALL (     155 calls)
     rdiaghg      :      0.08s CPU      0.11s WALL (     211 calls)

     Called by h_psi:
     add_vuspsi   :      0.01s CPU      0.01s WALL (     228 calls)

     General routines
     calbec       :      0.01s CPU      0.01s WALL (     300 calls)
     fft          :      0.34s CPU      0.39s WALL (    1103 calls)
     fftw         :      0.14s CPU      0.20s WALL (    1042 calls)
     davcio       :      0.00s CPU      0.00s WALL (       1 calls)
 
     Parallel routines
     fft_scatter  :      0.20s CPU      0.22s WALL (    2145 calls)
 
     PWSCF        :     3.24s CPU         3.40s WALL

 
   This run was terminated on:  15:32: 7  12Jun2015            

=------------------------------------------------------------------------------=
   JOB DONE.
=------------------------------------------------------------------------------=
