
     Program PWSCF v.5.1.1 starts on 12Jun2015 at 15:32: 8 

     This program is part of the open-source Quantum ESPRESSO suite
     for quantum simulation of materials; please cite
         "P. Giannozzi et al., J. Phys.:Condens. Matter 21 395502 (2009);
          URL http://www.quantum-espresso.org", 
     in publications or presentations arising from this work. More details at
     http://www.quantum-espresso.org/quote

     Parallel version (MPI & OpenMP), running on       8 processor cores
     Number of MPI processes:                 8
     Threads/MPI process:                     1
     R & G space division:  proc/nbgrp/npool/nimage =       8
     Waiting for input...
     Reading input from standard input
Warning: card &IONS ignored
Warning: card / ignored

     Current dimensions of program PWSCF are:
     Max number of different atomic species (ntypx) = 10
     Max number of k-points (npk) =  40000
     Max angular momentum in pseudopotentials (lmaxx) =  3
     Presently no symmetry can be used with electric field

               file H.pbe-rrkjus.UPF: wavefunction(s)  1S renormalized

     gamma-point specific algorithms are used

     Subspace diagonalization in iterative solution of the eigenvalue problem:
     scalapack distributed-memory algorithm (size of sub-group:  2*  2 procs)

 
     Parallelization info
     --------------------
     sticks:   dense  smooth     PW     G-vecs:    dense   smooth      PW
     Min         124     124     30                 2980     2980     366
     Max         126     126     31                 2983     2983     375
     Sum         997     997    241                23847    23847    2945
     Tot         499     499    121
 
     Generating pointlists ...
     new r_m :   0.0867 (alat units)  1.1463 (a.u.) for type    1
     new r_m :   0.0867 (alat units)  1.1463 (a.u.) for type    2


     bravais-lattice index     =            1
     lattice parameter (alat)  =      13.2281  a.u.
     unit-cell volume          =    2314.6788 (a.u.)^3
     number of atoms/cell      =            5
     number of atomic types    =            2
     number of electrons       =         8.00 (up:   4.00, down:   4.00)
     number of Kohn-Sham states=            4
     kinetic-energy cutoff     =      18.0000  Ry
     charge density cutoff     =      72.0000  Ry
     convergence threshold     =      1.0E-10
     mixing beta               =       0.3000
     number of iterations used =            8  plain     mixing
     Exchange-correlation      =  SLA  PW   PBE  PBE ( 1  4  3  4 0 0)

     celldm(1)=  13.228083  celldm(2)=   0.000000  celldm(3)=   0.000000
     celldm(4)=   0.000000  celldm(5)=   0.000000  celldm(6)=   0.000000

     crystal axes: (cart. coord. in units of alat)
               a(1) = (   1.000000   0.000000   0.000000 )  
               a(2) = (   0.000000   1.000000   0.000000 )  
               a(3) = (   0.000000   0.000000   1.000000 )  

     reciprocal axes: (cart. coord. in units 2 pi/alat)
               b(1) = (  1.000000  0.000000  0.000000 )  
               b(2) = (  0.000000  1.000000  0.000000 )  
               b(3) = (  0.000000  0.000000  1.000000 )  


     PseudoPot. # 1 for Si read from file:
     ../pseudo/Si.pbe-n-van.UPF
     MD5 check sum: 8a97496598b7338af554a5de8957bfee
     Pseudo is Ultrasoft + core correction, Zval =  4.0
     Generated by new atomic code, or converted to UPF format
     Using radial grid of  899 points,  6 beta functions with: 
                l(1) =   0
                l(2) =   0
                l(3) =   1
                l(4) =   1
                l(5) =   2
                l(6) =   2
     Q(r) pseudized with  8 coefficients,  rinner =    0.900   0.900   0.900
                                                       0.900   0.900

     PseudoPot. # 2 for H  read from file:
     ../pseudo/H.pbe-rrkjus.UPF
     MD5 check sum: 7cc9d459525c9a0585f487a71c3c9563
     Pseudo is Ultrasoft, Zval =  1.0
     Generated by new atomic code, or converted to UPF format
     Using radial grid of 1061 points,  2 beta functions with: 
                l(1) =   0
                l(2) =   0
     Q(r) pseudized with 0 coefficients 


     atomic species   valence    mass     pseudopotential
        Si             4.00    28.08550     Si( 1.00)
        H              1.00     1.00794     H ( 1.00)

     Starting magnetic structure 
     atomic species   magnetization
        Si           0.000
        H            0.000

     No symmetry found



   Cartesian axes

     site n.     atom                  positions (alat units)
         1           Si  tau(   1) = (  -0.0277829   0.3482714   0.0000000  )
         2           H   tau(   2) = (   0.1822929   0.3482714   0.0000000  )
         3           H   tau(   3) = (  -0.0978086   0.4498400   0.1700357  )
         4           H   tau(   4) = (  -0.0978086   0.1502329   0.0029429  )
         5           H   tau(   5) = (  -0.0978086   0.4447414  -0.1729786  )

     number of k points=     2
                       cart. coord. in units 2pi/alat
        k(    1) = (   0.0000000   0.0000000   0.0000000), wk =   1.0000000
        k(    2) = (   0.0000000   0.0000000   0.0000000), wk =   1.0000000

     Dense  grid:    11924 G-vectors     FFT dimensions: (  36,  36,  36)

     Largest allocated arrays     est. size (Mb)     dimensions
        Kohn-Sham Wavefunctions         0.01 Mb     (     185,    4)
        NL pseudopotentials             0.07 Mb     (     185,   26)
        Each V/rho on FFT grid          0.20 Mb     (    6480,   2)
        Each G-vector array             0.01 Mb     (    1490)
        G-vector shells                 0.00 Mb     (     230)
     Largest temporary arrays     est. size (Mb)     dimensions
        Auxiliary wavefunctions         0.02 Mb     (     185,   16)
        Each subspace H/S matrix        0.00 Mb     (       8,    8)
        Each <psi_i|beta_j> matrix      0.00 Mb     (      26,    4)
        Arrays for rho mixing           0.79 Mb     (    6480,    8)
 
     Using a distance-based cell
     Adding the potential well
        Amplitude [Ry a.u.] : -1.0000E+00
        Atom selected :           1
        Well size     :  2.6456E+00
 

     Check: negative/imaginary core charge=   -0.000002    0.000000

     Initial potential from superposition of free atoms

     starting charge    7.61451, renormalised to    8.00000

     negative rho (up, down):  6.546E-07 6.546E-07
     Starting wfc are    8 randomized atomic wfcs

     total cpu time spent up to now is        0.3 secs

     per-process dynamical memory:     8.7 Mb

     Self-consistent Calculation

     iteration #  1     ecut=    18.00 Ry     beta=0.30
     Davidson diagonalization with overlap
     ethr =  1.00E-02,  avg # of iterations =  3.0

     negative rho (up, down):  7.258E-05 7.225E-05
 
     Magnetic moment per site:
     atom:    1    charge:    0.5160    magn:    0.0002    constr:    0.0000
     atom:    2    charge:    0.4657    magn:   -0.0003    constr:    0.0000
     atom:    3    charge:    0.4649    magn:    0.0000    constr:    0.0000
     atom:    4    charge:    0.4654    magn:   -0.0002    constr:    0.0000
     atom:    5    charge:    0.4638    magn:    0.0000    constr:    0.0000

     total cpu time spent up to now is        0.4 secs

     The total energy is the sum of the following terms:

     one-electron contribution =     -25.51098740 Ry
     hartree contribution      =       7.90736409 Ry
     xc contribution           =      -6.42725258 Ry
     ewald contribution        =       0.88693575 Ry

     total energy              =     -19.32537620 Ry
     Harris-Foulkes estimate   =     -20.19047840 Ry
     estimated scf accuracy    <       2.23851308 Ry

     total magnetization       =     0.00 Bohr mag/cell
     absolute magnetization    =     0.01 Bohr mag/cell

     iteration #  2     ecut=    18.00 Ry     beta=0.30
     Davidson diagonalization with overlap
     ethr =  1.00E-02,  avg # of iterations =  1.0

     negative rho (up, down):  8.304E-03 8.285E-03
 
     Magnetic moment per site:
     atom:    1    charge:    0.6213    magn:    0.0002    constr:    0.0000
     atom:    2    charge:    0.6083    magn:   -0.0005    constr:    0.0000
     atom:    3    charge:    0.6032    magn:    0.0000    constr:    0.0000
     atom:    4    charge:    0.6081    magn:   -0.0003    constr:    0.0000
     atom:    5    charge:    0.6015    magn:    0.0000    constr:    0.0000

     total cpu time spent up to now is        0.4 secs

     The total energy is the sum of the following terms:

     one-electron contribution =     -25.06761308 Ry
     hartree contribution      =      11.48804692 Ry
     xc contribution           =      -7.41471631 Ry
     ewald contribution        =       0.88693575 Ry

     total energy              =     -18.82465568 Ry
     Harris-Foulkes estimate   =     -19.38813982 Ry
     estimated scf accuracy    <       0.79016374 Ry

     total magnetization       =     0.00 Bohr mag/cell
     absolute magnetization    =     0.00 Bohr mag/cell

     iteration #  3     ecut=    18.00 Ry     beta=0.30
     Davidson diagonalization with overlap
     ethr =  9.88E-03,  avg # of iterations =  2.0

     negative rho (up, down):  1.717E-02 1.716E-02
 
     Magnetic moment per site:
     atom:    1    charge:    0.5146    magn:    0.0001    constr:    0.0000
     atom:    2    charge:    0.6987    magn:   -0.0002    constr:    0.0000
     atom:    3    charge:    0.6929    magn:    0.0000    constr:    0.0000
     atom:    4    charge:    0.6970    magn:   -0.0001    constr:    0.0000
     atom:    5    charge:    0.6916    magn:    0.0000    constr:    0.0000

     total cpu time spent up to now is        0.5 secs

     The total energy is the sum of the following terms:

     one-electron contribution =     -24.10101088 Ry
     hartree contribution      =      11.42996435 Ry
     xc contribution           =      -7.45965668 Ry
     ewald contribution        =       0.88693575 Ry

     total energy              =     -18.91577859 Ry
     Harris-Foulkes estimate   =     -18.95061300 Ry
     estimated scf accuracy    <       0.07505415 Ry

     total magnetization       =     0.00 Bohr mag/cell
     absolute magnetization    =     0.00 Bohr mag/cell

     iteration #  4     ecut=    18.00 Ry     beta=0.30
     Davidson diagonalization with overlap
     ethr =  9.38E-04,  avg # of iterations =  2.0

     negative rho (up, down):  3.482E-02 3.481E-02
 
     Magnetic moment per site:
     atom:    1    charge:    0.5317    magn:    0.0000    constr:    0.0000
     atom:    2    charge:    0.7142    magn:   -0.0002    constr:    0.0000
     atom:    3    charge:    0.7077    magn:    0.0000    constr:    0.0000
     atom:    4    charge:    0.7125    magn:   -0.0001    constr:    0.0000
     atom:    5    charge:    0.7063    magn:    0.0000    constr:    0.0000

     total cpu time spent up to now is        0.5 secs

     The total energy is the sum of the following terms:

     one-electron contribution =     -24.44436867 Ry
     hartree contribution      =      12.01409084 Ry
     xc contribution           =      -7.61458447 Ry
     ewald contribution        =       0.88693575 Ry

     total energy              =     -18.91947198 Ry
     Harris-Foulkes estimate   =     -18.93387487 Ry
     estimated scf accuracy    <       0.02422216 Ry

     total magnetization       =     0.00 Bohr mag/cell
     absolute magnetization    =     0.00 Bohr mag/cell

     iteration #  5     ecut=    18.00 Ry     beta=0.30
     Davidson diagonalization with overlap
     ethr =  3.03E-04,  avg # of iterations =  2.0

     negative rho (up, down):  3.685E-02 3.684E-02
 
     Magnetic moment per site:
     atom:    1    charge:    0.5286    magn:    0.0001    constr:    0.0000
     atom:    2    charge:    0.7270    magn:   -0.0002    constr:    0.0000
     atom:    3    charge:    0.7204    magn:    0.0000    constr:    0.0000
     atom:    4    charge:    0.7252    magn:   -0.0001    constr:    0.0000
     atom:    5    charge:    0.7190    magn:    0.0000    constr:    0.0000

     total cpu time spent up to now is        0.6 secs

     The total energy is the sum of the following terms:

     one-electron contribution =     -24.26041165 Ry
     hartree contribution      =      12.09314065 Ry
     xc contribution           =      -7.64924660 Ry
     ewald contribution        =       0.88693575 Ry

     total energy              =     -18.92419492 Ry
     Harris-Foulkes estimate   =     -18.92319479 Ry
     estimated scf accuracy    <       0.00155599 Ry

     total magnetization       =     0.00 Bohr mag/cell
     absolute magnetization    =     0.00 Bohr mag/cell

     iteration #  6     ecut=    18.00 Ry     beta=0.30
     Davidson diagonalization with overlap
     ethr =  1.94E-05,  avg # of iterations =  1.0

     negative rho (up, down):  3.882E-02 3.882E-02
 
     Magnetic moment per site:
     atom:    1    charge:    0.5359    magn:    0.0000    constr:    0.0000
     atom:    2    charge:    0.6986    magn:    0.0000    constr:    0.0000
     atom:    3    charge:    0.6922    magn:    0.0000    constr:    0.0000
     atom:    4    charge:    0.6972    magn:    0.0000    constr:    0.0000
     atom:    5    charge:    0.6908    magn:    0.0000    constr:    0.0000

     total cpu time spent up to now is        0.6 secs

     The total energy is the sum of the following terms:

     one-electron contribution =     -24.25693976 Ry
     hartree contribution      =      12.02125130 Ry
     xc contribution           =      -7.59400198 Ry
     ewald contribution        =       0.88693575 Ry

     total energy              =     -18.92229790 Ry
     Harris-Foulkes estimate   =     -18.92424434 Ry
     estimated scf accuracy    <       0.00411071 Ry

     total magnetization       =     0.00 Bohr mag/cell
     absolute magnetization    =     0.00 Bohr mag/cell

     iteration #  7     ecut=    18.00 Ry     beta=0.30
     Davidson diagonalization with overlap
     ethr =  1.94E-05,  avg # of iterations =  2.0

     negative rho (up, down):  3.878E-02 3.878E-02
 
     Magnetic moment per site:
     atom:    1    charge:    0.5358    magn:    0.0000    constr:    0.0000
     atom:    2    charge:    0.6988    magn:    0.0000    constr:    0.0000
     atom:    3    charge:    0.6924    magn:    0.0000    constr:    0.0000
     atom:    4    charge:    0.6973    magn:    0.0000    constr:    0.0000
     atom:    5    charge:    0.6909    magn:    0.0000    constr:    0.0000

     total cpu time spent up to now is        0.7 secs

     The total energy is the sum of the following terms:

     one-electron contribution =     -24.22564098 Ry
     hartree contribution      =      12.02006002 Ry
     xc contribution           =      -7.59388486 Ry
     ewald contribution        =       0.88693575 Ry

     total energy              =     -18.92279051 Ry
     Harris-Foulkes estimate   =     -18.92279518 Ry
     estimated scf accuracy    <       0.00007949 Ry

     total magnetization       =     0.00 Bohr mag/cell
     absolute magnetization    =     0.00 Bohr mag/cell

     iteration #  8     ecut=    18.00 Ry     beta=0.30
     Davidson diagonalization with overlap
     ethr =  9.94E-07,  avg # of iterations =  2.0

     negative rho (up, down):  3.886E-02 3.885E-02
 
     Magnetic moment per site:
     atom:    1    charge:    0.5354    magn:    0.0000    constr:    0.0000
     atom:    2    charge:    0.7000    magn:   -0.0001    constr:    0.0000
     atom:    3    charge:    0.6936    magn:    0.0000    constr:    0.0000
     atom:    4    charge:    0.6986    magn:    0.0000    constr:    0.0000
     atom:    5    charge:    0.6922    magn:    0.0000    constr:    0.0000

     total cpu time spent up to now is        0.7 secs

     The total energy is the sum of the following terms:

     one-electron contribution =     -24.22760618 Ry
     hartree contribution      =      12.02414705 Ry
     xc contribution           =      -7.59640673 Ry
     ewald contribution        =       0.88693575 Ry

     total energy              =     -18.92278235 Ry
     Harris-Foulkes estimate   =     -18.92279729 Ry
     estimated scf accuracy    <       0.00006597 Ry

     total magnetization       =     0.00 Bohr mag/cell
     absolute magnetization    =     0.00 Bohr mag/cell

     iteration #  9     ecut=    18.00 Ry     beta=0.30
     Davidson diagonalization with overlap
     ethr =  8.25E-07,  avg # of iterations =  1.0

     negative rho (up, down):  3.884E-02 3.884E-02
 
     Magnetic moment per site:
     atom:    1    charge:    0.5353    magn:    0.0000    constr:    0.0000
     atom:    2    charge:    0.7002    magn:    0.0000    constr:    0.0000
     atom:    3    charge:    0.6939    magn:    0.0000    constr:    0.0000
     atom:    4    charge:    0.6988    magn:    0.0000    constr:    0.0000
     atom:    5    charge:    0.6924    magn:    0.0000    constr:    0.0000

     total cpu time spent up to now is        0.8 secs

     The total energy is the sum of the following terms:

     one-electron contribution =     -24.22842382 Ry
     hartree contribution      =      12.02507172 Ry
     xc contribution           =      -7.59692098 Ry
     ewald contribution        =       0.88693575 Ry

     total energy              =     -18.92278149 Ry
     Harris-Foulkes estimate   =     -18.92278347 Ry
     estimated scf accuracy    <       0.00003219 Ry

     total magnetization       =     0.00 Bohr mag/cell
     absolute magnetization    =     0.00 Bohr mag/cell

     iteration # 10     ecut=    18.00 Ry     beta=0.30
     Davidson diagonalization with overlap
     ethr =  4.02E-07,  avg # of iterations =  1.0

     negative rho (up, down):  3.872E-02 3.872E-02
 
     Magnetic moment per site:
     atom:    1    charge:    0.5349    magn:    0.0000    constr:    0.0000
     atom:    2    charge:    0.7002    magn:    0.0000    constr:    0.0000
     atom:    3    charge:    0.6939    magn:    0.0000    constr:    0.0000
     atom:    4    charge:    0.6988    magn:    0.0000    constr:    0.0000
     atom:    5    charge:    0.6924    magn:    0.0000    constr:    0.0000

     total cpu time spent up to now is        0.8 secs

     The total energy is the sum of the following terms:

     one-electron contribution =     -24.22893868 Ry
     hartree contribution      =      12.02428767 Ry
     xc contribution           =      -7.59664551 Ry
     ewald contribution        =       0.88693575 Ry

     total energy              =     -18.92278069 Ry
     Harris-Foulkes estimate   =     -18.92278176 Ry
     estimated scf accuracy    <       0.00002450 Ry

     total magnetization       =     0.00 Bohr mag/cell
     absolute magnetization    =     0.00 Bohr mag/cell

     iteration # 11     ecut=    18.00 Ry     beta=0.30
     Davidson diagonalization with overlap
     ethr =  3.06E-07,  avg # of iterations =  1.0

     negative rho (up, down):  3.860E-02 3.860E-02
 
     Magnetic moment per site:
     atom:    1    charge:    0.5346    magn:    0.0000    constr:    0.0000
     atom:    2    charge:    0.7003    magn:    0.0000    constr:    0.0000
     atom:    3    charge:    0.6940    magn:    0.0000    constr:    0.0000
     atom:    4    charge:    0.6988    magn:    0.0000    constr:    0.0000
     atom:    5    charge:    0.6925    magn:    0.0000    constr:    0.0000

     total cpu time spent up to now is        0.9 secs

     The total energy is the sum of the following terms:

     one-electron contribution =     -24.22923443 Ry
     hartree contribution      =      12.02238253 Ry
     xc contribution           =      -7.59623370 Ry
     ewald contribution        =       0.88693575 Ry

     total energy              =     -18.92277884 Ry
     Harris-Foulkes estimate   =     -18.92278096 Ry
     estimated scf accuracy    <       0.00001827 Ry

     total magnetization       =     0.00 Bohr mag/cell
     absolute magnetization    =     0.00 Bohr mag/cell

     iteration # 12     ecut=    18.00 Ry     beta=0.30
     Davidson diagonalization with overlap
     ethr =  2.28E-07,  avg # of iterations =  1.0

     negative rho (up, down):  3.856E-02 3.856E-02
 
     Magnetic moment per site:
     atom:    1    charge:    0.5340    magn:    0.0000    constr:    0.0000
     atom:    2    charge:    0.7014    magn:    0.0000    constr:    0.0000
     atom:    3    charge:    0.6951    magn:    0.0000    constr:    0.0000
     atom:    4    charge:    0.7000    magn:    0.0000    constr:    0.0000
     atom:    5    charge:    0.6936    magn:    0.0000    constr:    0.0000

     total cpu time spent up to now is        1.0 secs

     The total energy is the sum of the following terms:

     one-electron contribution =     -24.23022173 Ry
     hartree contribution      =      12.02262861 Ry
     xc contribution           =      -7.59756949 Ry
     ewald contribution        =       0.88693575 Ry

     total energy              =     -18.92277358 Ry
     Harris-Foulkes estimate   =     -18.92277905 Ry
     estimated scf accuracy    <       0.00001313 Ry

     total magnetization       =     0.00 Bohr mag/cell
     absolute magnetization    =     0.00 Bohr mag/cell

     iteration # 13     ecut=    18.00 Ry     beta=0.30
     Davidson diagonalization with overlap
     ethr =  1.64E-07,  avg # of iterations =  2.0

     negative rho (up, down):  3.859E-02 3.859E-02
 
     Magnetic moment per site:
     atom:    1    charge:    0.5341    magn:    0.0000    constr:    0.0000
     atom:    2    charge:    0.7012    magn:    0.0000    constr:    0.0000
     atom:    3    charge:    0.6949    magn:    0.0000    constr:    0.0000
     atom:    4    charge:    0.6998    magn:    0.0000    constr:    0.0000
     atom:    5    charge:    0.6934    magn:    0.0000    constr:    0.0000

     total cpu time spent up to now is        1.0 secs

     The total energy is the sum of the following terms:

     one-electron contribution =     -24.23308063 Ry
     hartree contribution      =      12.02246013 Ry
     xc contribution           =      -7.59729243 Ry
     ewald contribution        =       0.88693575 Ry

     total energy              =     -18.92277548 Ry
     Harris-Foulkes estimate   =     -18.92277549 Ry
     estimated scf accuracy    <       0.00000183 Ry

     total magnetization       =     0.00 Bohr mag/cell
     absolute magnetization    =     0.00 Bohr mag/cell

     iteration # 14     ecut=    18.00 Ry     beta=0.30
     Davidson diagonalization with overlap
     ethr =  2.28E-08,  avg # of iterations =  1.0

     negative rho (up, down):  3.866E-02 3.866E-02
 
     Magnetic moment per site:
     atom:    1    charge:    0.5342    magn:    0.0000    constr:    0.0000
     atom:    2    charge:    0.7010    magn:    0.0000    constr:    0.0000
     atom:    3    charge:    0.6948    magn:    0.0000    constr:    0.0000
     atom:    4    charge:    0.6996    magn:    0.0000    constr:    0.0000
     atom:    5    charge:    0.6933    magn:    0.0000    constr:    0.0000

     total cpu time spent up to now is        1.1 secs

     The total energy is the sum of the following terms:

     one-electron contribution =     -24.23270902 Ry
     hartree contribution      =      12.02093464 Ry
     xc contribution           =      -7.59670231 Ry
     ewald contribution        =       0.88693575 Ry

     total energy              =     -18.92277555 Ry
     Harris-Foulkes estimate   =     -18.92277553 Ry
     estimated scf accuracy    <       0.00000153 Ry

     total magnetization       =     0.00 Bohr mag/cell
     absolute magnetization    =     0.00 Bohr mag/cell

     iteration # 15     ecut=    18.00 Ry     beta=0.30
     Davidson diagonalization with overlap
     ethr =  1.91E-08,  avg # of iterations =  1.0

     negative rho (up, down):  3.868E-02 3.868E-02
 
     Magnetic moment per site:
     atom:    1    charge:    0.5342    magn:    0.0000    constr:    0.0000
     atom:    2    charge:    0.7012    magn:    0.0000    constr:    0.0000
     atom:    3    charge:    0.6949    magn:    0.0000    constr:    0.0000
     atom:    4    charge:    0.6997    magn:    0.0000    constr:    0.0000
     atom:    5    charge:    0.6935    magn:    0.0000    constr:    0.0000

     total cpu time spent up to now is        1.1 secs

     The total energy is the sum of the following terms:

     one-electron contribution =     -24.23312607 Ry
     hartree contribution      =      12.02058818 Ry
     xc contribution           =      -7.59676742 Ry
     ewald contribution        =       0.88693575 Ry

     total energy              =     -18.92277551 Ry
     Harris-Foulkes estimate   =     -18.92277563 Ry
     estimated scf accuracy    <       0.00000030 Ry

     total magnetization       =     0.00 Bohr mag/cell
     absolute magnetization    =     0.00 Bohr mag/cell

     iteration # 16     ecut=    18.00 Ry     beta=0.30
     Davidson diagonalization with overlap
     ethr =  3.81E-09,  avg # of iterations =  2.0

     negative rho (up, down):  3.868E-02 3.868E-02
 
     Magnetic moment per site:
     atom:    1    charge:    0.5341    magn:    0.0000    constr:    0.0000
     atom:    2    charge:    0.7012    magn:    0.0000    constr:    0.0000
     atom:    3    charge:    0.6949    magn:    0.0000    constr:    0.0000
     atom:    4    charge:    0.6998    magn:    0.0000    constr:    0.0000
     atom:    5    charge:    0.6935    magn:    0.0000    constr:    0.0000

     total cpu time spent up to now is        1.2 secs

     The total energy is the sum of the following terms:

     one-electron contribution =     -24.23361806 Ry
     hartree contribution      =      12.02062736 Ry
     xc contribution           =      -7.59680174 Ry
     ewald contribution        =       0.88693575 Ry

     total energy              =     -18.92277558 Ry
     Harris-Foulkes estimate   =     -18.92277559 Ry
     estimated scf accuracy    <       0.00000002 Ry

     total magnetization       =     0.00 Bohr mag/cell
     absolute magnetization    =     0.00 Bohr mag/cell

     iteration # 17     ecut=    18.00 Ry     beta=0.30
     Davidson diagonalization with overlap
     ethr =  3.09E-10,  avg # of iterations =  1.5

     negative rho (up, down):  3.867E-02 3.867E-02
 
     Magnetic moment per site:
     atom:    1    charge:    0.5342    magn:    0.0000    constr:    0.0000
     atom:    2    charge:    0.7012    magn:    0.0000    constr:    0.0000
     atom:    3    charge:    0.6949    magn:    0.0000    constr:    0.0000
     atom:    4    charge:    0.6997    magn:    0.0000    constr:    0.0000
     atom:    5    charge:    0.6935    magn:    0.0000    constr:    0.0000

     total cpu time spent up to now is        1.2 secs

     The total energy is the sum of the following terms:

     one-electron contribution =     -24.23361259 Ry
     hartree contribution      =      12.02067925 Ry
     xc contribution           =      -7.59680309 Ry
     ewald contribution        =       0.88693575 Ry

     total energy              =     -18.92277558 Ry
     Harris-Foulkes estimate   =     -18.92277559 Ry
     estimated scf accuracy    <       0.00000001 Ry

     total magnetization       =     0.00 Bohr mag/cell
     absolute magnetization    =     0.00 Bohr mag/cell

     iteration # 18     ecut=    18.00 Ry     beta=0.30
     Davidson diagonalization with overlap
     ethr =  1.53E-10,  avg # of iterations =  2.0

     negative rho (up, down):  3.867E-02 3.867E-02
 
     Magnetic moment per site:
     atom:    1    charge:    0.5342    magn:    0.0000    constr:    0.0000
     atom:    2    charge:    0.7012    magn:    0.0000    constr:    0.0000
     atom:    3    charge:    0.6949    magn:    0.0000    constr:    0.0000
     atom:    4    charge:    0.6997    magn:    0.0000    constr:    0.0000
     atom:    5    charge:    0.6935    magn:    0.0000    constr:    0.0000

     total cpu time spent up to now is        1.3 secs

     The total energy is the sum of the following terms:

     one-electron contribution =     -24.23354321 Ry
     hartree contribution      =      12.02064625 Ry
     xc contribution           =      -7.59678173 Ry
     ewald contribution        =       0.88693575 Ry

     total energy              =     -18.92277558 Ry
     Harris-Foulkes estimate   =     -18.92277558 Ry
     estimated scf accuracy    <          8.3E-10 Ry

     total magnetization       =     0.00 Bohr mag/cell
     absolute magnetization    =     0.00 Bohr mag/cell

     iteration # 19     ecut=    18.00 Ry     beta=0.30
     Davidson diagonalization with overlap
     ethr =  1.04E-11,  avg # of iterations =  2.0

     negative rho (up, down):  3.867E-02 3.867E-02
 
     Magnetic moment per site:
     atom:    1    charge:    0.5342    magn:    0.0000    constr:    0.0000
     atom:    2    charge:    0.7012    magn:    0.0000    constr:    0.0000
     atom:    3    charge:    0.6949    magn:    0.0000    constr:    0.0000
     atom:    4    charge:    0.6997    magn:    0.0000    constr:    0.0000
     atom:    5    charge:    0.6935    magn:    0.0000    constr:    0.0000

     total cpu time spent up to now is        1.4 secs

     The total energy is the sum of the following terms:

     one-electron contribution =     -24.23353401 Ry
     hartree contribution      =      12.02063829 Ry
     xc contribution           =      -7.59679160 Ry
     ewald contribution        =       0.88693575 Ry

     total energy              =     -18.92277558 Ry
     Harris-Foulkes estimate   =     -18.92277558 Ry
     estimated scf accuracy    <          1.1E-09 Ry

     total magnetization       =     0.00 Bohr mag/cell
     absolute magnetization    =     0.00 Bohr mag/cell

     iteration # 20     ecut=    18.00 Ry     beta=0.30
     Davidson diagonalization with overlap
     ethr =  1.04E-11,  avg # of iterations =  2.0

     negative rho (up, down):  3.867E-02 3.867E-02
 
     Magnetic moment per site:
     atom:    1    charge:    0.5342    magn:    0.0000    constr:    0.0000
     atom:    2    charge:    0.7012    magn:    0.0000    constr:    0.0000
     atom:    3    charge:    0.6949    magn:    0.0000    constr:    0.0000
     atom:    4    charge:    0.6997    magn:    0.0000    constr:    0.0000
     atom:    5    charge:    0.6935    magn:    0.0000    constr:    0.0000

     total cpu time spent up to now is        1.4 secs

     End of self-consistent calculation

 ------ SPIN UP ------------


          k = 0.0000 0.0000 0.0000 (  1473 PWs)   bands (ev):

   -17.8132 -11.6318 -11.5412 -11.5367

 ------ SPIN DOWN ----------


          k = 0.0000 0.0000 0.0000 (  1473 PWs)   bands (ev):

   -17.8132 -11.6318 -11.5412 -11.5367

     highest occupied level (ev):   -11.5367

     The total energy is the sum of the following terms:

     one-electron contribution =     -24.23355655 Ry
     hartree contribution      =      12.02063420 Ry
     xc contribution           =      -7.59678899 Ry
     ewald contribution        =       0.88693575 Ry

!    total energy              =     -18.92277558 Ry
     Harris-Foulkes estimate   =     -18.92277558 Ry
     estimated scf accuracy    <          4.0E-11 Ry

     The total energy is the sum of the following terms:

     one-electron contribution =     -24.23355655 Ry
     hartree contribution      =      12.02063420 Ry
     xc contribution           =      -7.59678899 Ry
     ewald contribution        =       0.88693575 Ry
     electric field correction =       0.00000000 Ry

     total magnetization       =     0.00 Bohr mag/cell
     absolute magnetization    =     0.00 Bohr mag/cell

     convergence has been achieved in  20 iterations
 
     Using a distance-based cell
     Adding the potential well
        Amplitude [Ry a.u.] : -1.0000E+00
        Atom selected :           1
        Well size     :  2.6456E+00
 
 
     Using a distance-based cell
     Adding the potential well
        Amplitude [Ry a.u.] : -1.0000E+00
        Atom selected :           1
        Well size     :  2.6456E+00
 
     E field correction :    5.25842552004634       Ry
     #e's   in well     :    2.51685104009270       electrons
     Surplus/deficit electrons    :    -1.51685104009270      electrons
     epcdft_thr                   :    1.000000000000000E-006 electrons
 
     -----------------------------------------------
 
                      SCF converged but...
 
     electron localization condition NOT satisfied
     restarting scf with different applied potential
 
     New field Amp      :  -0.999000000000000       Ry
     charge density from previous step

     Check: negative/imaginary core charge=   -0.000002    0.000000

     negative rho (up, down):  3.867E-02 3.867E-02
 
     Using a distance-based cell
     Adding the potential well
        Amplitude [Ry a.u.] : -9.9900E-01
        Atom selected :           1
        Well size     :  2.6456E+00
 

     total cpu time spent up to now is        1.5 secs

     per-process dynamical memory:    10.6 Mb

     Self-consistent Calculation

     iteration #  1     ecut=    18.00 Ry     beta=0.30
     Davidson diagonalization with overlap
     ethr =  1.04E-11,  avg # of iterations =  6.0

     negative rho (up, down):  3.866E-02 3.866E-02
 
     Magnetic moment per site:
     atom:    1    charge:    0.5341    magn:    0.0000    constr:    0.0000
     atom:    2    charge:    0.7012    magn:    0.0000    constr:    0.0000
     atom:    3    charge:    0.6950    magn:    0.0000    constr:    0.0000
     atom:    4    charge:    0.6998    magn:    0.0000    constr:    0.0000
     atom:    5    charge:    0.6935    magn:    0.0000    constr:    0.0000

     total cpu time spent up to now is        1.5 secs

     The total energy is the sum of the following terms:

     one-electron contribution =     -24.22541328 Ry
     hartree contribution      =      12.01953778 Ry
     xc contribution           =      -7.59655822 Ry
     ewald contribution        =       0.88693575 Ry

     total energy              =     -18.91751771 Ry
     Harris-Foulkes estimate   =     -18.91751801 Ry
     estimated scf accuracy    <       0.00000084 Ry

     total magnetization       =     0.00 Bohr mag/cell
     absolute magnetization    =     0.00 Bohr mag/cell

     iteration #  2     ecut=    18.00 Ry     beta=0.30
     Davidson diagonalization with overlap
     ethr =  1.05E-08,  avg # of iterations =  1.0

     negative rho (up, down):  3.865E-02 3.865E-02
 
     Magnetic moment per site:
     atom:    1    charge:    0.5340    magn:    0.0000    constr:    0.0000
     atom:    2    charge:    0.7013    magn:    0.0000    constr:    0.0000
     atom:    3    charge:    0.6950    magn:    0.0000    constr:    0.0000
     atom:    4    charge:    0.6998    magn:    0.0000    constr:    0.0000
     atom:    5    charge:    0.6936    magn:    0.0000    constr:    0.0000

     total cpu time spent up to now is        1.6 secs

     The total energy is the sum of the following terms:

     one-electron contribution =     -24.22603284 Ry
     hartree contribution      =      12.01851339 Ry
     xc contribution           =      -7.59634691 Ry
     ewald contribution        =       0.88693575 Ry

     total energy              =     -18.91751763 Ry
     Harris-Foulkes estimate   =     -18.91751775 Ry
     estimated scf accuracy    <       0.00000020 Ry

     total magnetization       =     0.00 Bohr mag/cell
     absolute magnetization    =     0.00 Bohr mag/cell

     iteration #  3     ecut=    18.00 Ry     beta=0.30
     Davidson diagonalization with overlap
     ethr =  2.46E-09,  avg # of iterations =  2.0

     negative rho (up, down):  3.865E-02 3.865E-02
 
     Magnetic moment per site:
     atom:    1    charge:    0.5340    magn:    0.0000    constr:    0.0000
     atom:    2    charge:    0.7013    magn:    0.0000    constr:    0.0000
     atom:    3    charge:    0.6950    magn:    0.0000    constr:    0.0000
     atom:    4    charge:    0.6998    magn:    0.0000    constr:    0.0000
     atom:    5    charge:    0.6936    magn:    0.0000    constr:    0.0000

     total cpu time spent up to now is        1.6 secs

     The total energy is the sum of the following terms:

     one-electron contribution =     -24.22659189 Ry
     hartree contribution      =      12.01851626 Ry
     xc contribution           =      -7.59634382 Ry
     ewald contribution        =       0.88693575 Ry

     total energy              =     -18.91751768 Ry
     Harris-Foulkes estimate   =     -18.91751768 Ry
     estimated scf accuracy    <          5.8E-09 Ry

     total magnetization       =     0.00 Bohr mag/cell
     absolute magnetization    =     0.00 Bohr mag/cell

     iteration #  4     ecut=    18.00 Ry     beta=0.30
     Davidson diagonalization with overlap
     ethr =  7.29E-11,  avg # of iterations =  1.0

     negative rho (up, down):  3.865E-02 3.865E-02
 
     Magnetic moment per site:
     atom:    1    charge:    0.5340    magn:    0.0000    constr:    0.0000
     atom:    2    charge:    0.7012    magn:    0.0000    constr:    0.0000
     atom:    3    charge:    0.6950    magn:    0.0000    constr:    0.0000
     atom:    4    charge:    0.6998    magn:    0.0000    constr:    0.0000
     atom:    5    charge:    0.6935    magn:    0.0000    constr:    0.0000

     total cpu time spent up to now is        1.7 secs

     The total energy is the sum of the following terms:

     one-electron contribution =     -24.22658934 Ry
     hartree contribution      =      12.01847353 Ry
     xc contribution           =      -7.59631336 Ry
     ewald contribution        =       0.88693575 Ry

     total energy              =     -18.91751768 Ry
     Harris-Foulkes estimate   =     -18.91751768 Ry
     estimated scf accuracy    <          4.4E-09 Ry

     total magnetization       =     0.00 Bohr mag/cell
     absolute magnetization    =     0.00 Bohr mag/cell

     iteration #  5     ecut=    18.00 Ry     beta=0.30
     Davidson diagonalization with overlap
     ethr =  5.45E-11,  avg # of iterations =  2.0

     negative rho (up, down):  3.865E-02 3.865E-02
 
     Magnetic moment per site:
     atom:    1    charge:    0.5340    magn:    0.0000    constr:    0.0000
     atom:    2    charge:    0.7012    magn:    0.0000    constr:    0.0000
     atom:    3    charge:    0.6950    magn:    0.0000    constr:    0.0000
     atom:    4    charge:    0.6998    magn:    0.0000    constr:    0.0000
     atom:    5    charge:    0.6935    magn:    0.0000    constr:    0.0000

     total cpu time spent up to now is        1.7 secs

     The total energy is the sum of the following terms:

     one-electron contribution =     -24.22655209 Ry
     hartree contribution      =      12.01840856 Ry
     xc contribution           =      -7.59628927 Ry
     ewald contribution        =       0.88693575 Ry

     total energy              =     -18.91751768 Ry
     Harris-Foulkes estimate   =     -18.91751768 Ry
     estimated scf accuracy    <          3.9E-10 Ry

     total magnetization       =     0.00 Bohr mag/cell
     absolute magnetization    =     0.00 Bohr mag/cell

     iteration #  6     ecut=    18.00 Ry     beta=0.30
     Davidson diagonalization with overlap
     ethr =  4.90E-12,  avg # of iterations =  2.0

     negative rho (up, down):  3.865E-02 3.865E-02
 
     Magnetic moment per site:
     atom:    1    charge:    0.5340    magn:    0.0000    constr:    0.0000
     atom:    2    charge:    0.7012    magn:    0.0000    constr:    0.0000
     atom:    3    charge:    0.6950    magn:    0.0000    constr:    0.0000
     atom:    4    charge:    0.6998    magn:    0.0000    constr:    0.0000
     atom:    5    charge:    0.6935    magn:    0.0000    constr:    0.0000

     total cpu time spent up to now is        1.8 secs

     End of self-consistent calculation

 ------ SPIN UP ------------


          k = 0.0000 0.0000 0.0000 (  1473 PWs)   bands (ev):

   -17.8070 -11.6267 -11.5361 -11.5316

 ------ SPIN DOWN ----------


          k = 0.0000 0.0000 0.0000 (  1473 PWs)   bands (ev):

   -17.8070 -11.6267 -11.5361 -11.5316

     highest occupied level (ev):   -11.5316

     The total energy is the sum of the following terms:

     one-electron contribution =     -24.22655971 Ry
     hartree contribution      =      12.01839343 Ry
     xc contribution           =      -7.59628715 Ry
     ewald contribution        =       0.88693575 Ry

!    total energy              =     -18.91751768 Ry
     Harris-Foulkes estimate   =     -18.91751768 Ry
     estimated scf accuracy    <          6.4E-11 Ry

     The total energy is the sum of the following terms:

     one-electron contribution =     -24.22655971 Ry
     hartree contribution      =      12.01839343 Ry
     xc contribution           =      -7.59628715 Ry
     ewald contribution        =       0.88693575 Ry
     electric field correction =       0.00000000 Ry

     total magnetization       =     0.00 Bohr mag/cell
     absolute magnetization    =     0.00 Bohr mag/cell

     convergence has been achieved in   6 iterations
 
     Using a distance-based cell
     Adding the potential well
        Amplitude [Ry a.u.] : -9.9900E-01
        Atom selected :           1
        Well size     :  2.6456E+00
 
 
     Using a distance-based cell
     Adding the potential well
        Amplitude [Ry a.u.] : -9.9900E-01
        Atom selected :           1
        Well size     :  2.6456E+00
 
     E field correction :    5.25212159500333       Ry
     #e's   in well     :    2.51475794795463       electrons
     Surplus/deficit electrons    :    -1.51475794795463      electrons
     epcdft_thr                   :    1.000000000000000E-006 electrons
 
     -----------------------------------------------
 
                      SCF converged but...
 
     electron localization condition NOT satisfied
     restarting scf with different applied potential
 
     New field Amp      :  -0.275306130816448       Ry
     charge density from previous step

     Check: negative/imaginary core charge=   -0.000002    0.000000

     negative rho (up, down):  3.865E-02 3.865E-02
 
     Using a distance-based cell
     Adding the potential well
        Amplitude [Ry a.u.] : -2.7531E-01
        Atom selected :           1
        Well size     :  2.6456E+00
 

     total cpu time spent up to now is        1.8 secs

     per-process dynamical memory:    10.6 Mb

     Self-consistent Calculation

     iteration #  1     ecut=    18.00 Ry     beta=0.30
     Davidson diagonalization with overlap
     ethr =  4.90E-12,  avg # of iterations = 12.0

     negative rho (up, down):  2.837E-02 2.837E-02
 
     Magnetic moment per site:
     atom:    1    charge:    0.4646    magn:    0.0000    constr:    0.0000
     atom:    2    charge:    0.7237    magn:    0.0000    constr:    0.0000
     atom:    3    charge:    0.7201    magn:    0.0000    constr:    0.0000
     atom:    4    charge:    0.7224    magn:    0.0000    constr:    0.0000
     atom:    5    charge:    0.7189    magn:    0.0000    constr:    0.0000

     total cpu time spent up to now is        1.9 secs

     The total energy is the sum of the following terms:

     one-electron contribution =     -18.26993747 Ry
     hartree contribution      =      11.04024040 Ry
     xc contribution           =      -7.37913286 Ry
     ewald contribution        =       0.88693575 Ry

     total energy              =     -15.41162781 Ry
     Harris-Foulkes estimate   =     -15.61994969 Ry
     estimated scf accuracy    <       0.57174265 Ry

     total magnetization       =     0.00 Bohr mag/cell
     absolute magnetization    =     0.00 Bohr mag/cell

     iteration #  2     ecut=    18.00 Ry     beta=0.30
     Davidson diagonalization with overlap
     ethr =  7.15E-03,  avg # of iterations =  1.0

     negative rho (up, down):  2.264E-02 2.264E-02
 
     Magnetic moment per site:
     atom:    1    charge:    0.4103    magn:    0.0000    constr:    0.0000
     atom:    2    charge:    0.7463    magn:    0.0000    constr:    0.0000
     atom:    3    charge:    0.7451    magn:    0.0000    constr:    0.0000
     atom:    4    charge:    0.7452    magn:    0.0000    constr:    0.0000
     atom:    5    charge:    0.7441    magn:    0.0000    constr:    0.0000

     total cpu time spent up to now is        2.0 secs

     The total energy is the sum of the following terms:

     one-electron contribution =     -18.94912388 Ry
     hartree contribution      =      10.35699216 Ry
     xc contribution           =      -7.23809683 Ry
     ewald contribution        =       0.88693575 Ry

     total energy              =     -15.37843972 Ry
     Harris-Foulkes estimate   =     -15.44280906 Ry
     estimated scf accuracy    <       0.11563409 Ry

     total magnetization       =     0.00 Bohr mag/cell
     absolute magnetization    =     0.00 Bohr mag/cell

     iteration #  3     ecut=    18.00 Ry     beta=0.30
     Davidson diagonalization with overlap
     ethr =  1.45E-03,  avg # of iterations =  2.0

     negative rho (up, down):  2.304E-02 2.304E-02
 
     Magnetic moment per site:
     atom:    1    charge:    0.4136    magn:    0.0000    constr:    0.0000
     atom:    2    charge:    0.7436    magn:    0.0000    constr:    0.0000
     atom:    3    charge:    0.7423    magn:    0.0000    constr:    0.0000
     atom:    4    charge:    0.7424    magn:    0.0000    constr:    0.0000
     atom:    5    charge:    0.7413    magn:    0.0000    constr:    0.0000

     total cpu time spent up to now is        2.0 secs

     The total energy is the sum of the following terms:

     one-electron contribution =     -19.42463477 Ry
     hartree contribution      =      10.36338650 Ry
     xc contribution           =      -7.23612338 Ry
     ewald contribution        =       0.88693575 Ry

     total energy              =     -15.40353747 Ry
     Harris-Foulkes estimate   =     -15.40369842 Ry
     estimated scf accuracy    <       0.00113894 Ry

     total magnetization       =     0.00 Bohr mag/cell
     absolute magnetization    =     0.00 Bohr mag/cell

     iteration #  4     ecut=    18.00 Ry     beta=0.30
     Davidson diagonalization with overlap
     ethr =  1.42E-05,  avg # of iterations =  1.0

     negative rho (up, down):  2.450E-02 2.450E-02
 
     Magnetic moment per site:
     atom:    1    charge:    0.4245    magn:    0.0000    constr:    0.0000
     atom:    2    charge:    0.7327    magn:    0.0000    constr:    0.0000
     atom:    3    charge:    0.7314    magn:    0.0000    constr:    0.0000
     atom:    4    charge:    0.7315    magn:    0.0000    constr:    0.0000
     atom:    5    charge:    0.7305    magn:    0.0000    constr:    0.0000

     total cpu time spent up to now is        2.1 secs

     The total energy is the sum of the following terms:

     one-electron contribution =     -19.41627814 Ry
     hartree contribution      =      10.33992046 Ry
     xc contribution           =      -7.21619703 Ry
     ewald contribution        =       0.88693575 Ry

     total energy              =     -15.40346807 Ry
     Harris-Foulkes estimate   =     -15.40361456 Ry
     estimated scf accuracy    <       0.00066795 Ry

     total magnetization       =     0.00 Bohr mag/cell
     absolute magnetization    =     0.00 Bohr mag/cell

     iteration #  5     ecut=    18.00 Ry     beta=0.30
     Davidson diagonalization with overlap
     ethr =  8.35E-06,  avg # of iterations =  2.0

     negative rho (up, down):  2.454E-02 2.454E-02
 
     Magnetic moment per site:
     atom:    1    charge:    0.4239    magn:    0.0000    constr:    0.0000
     atom:    2    charge:    0.7329    magn:    0.0000    constr:    0.0000
     atom:    3    charge:    0.7319    magn:    0.0000    constr:    0.0000
     atom:    4    charge:    0.7319    magn:    0.0000    constr:    0.0000
     atom:    5    charge:    0.7310    magn:    0.0000    constr:    0.0000

     total cpu time spent up to now is        2.1 secs

     The total energy is the sum of the following terms:

     one-electron contribution =     -19.39656744 Ry
     hartree contribution      =      10.32574507 Ry
     xc contribution           =      -7.21314207 Ry
     ewald contribution        =       0.88693575 Ry

     total energy              =     -15.40357608 Ry
     Harris-Foulkes estimate   =     -15.40361293 Ry
     estimated scf accuracy    <       0.00009934 Ry

     total magnetization       =     0.00 Bohr mag/cell
     absolute magnetization    =     0.00 Bohr mag/cell

     iteration #  6     ecut=    18.00 Ry     beta=0.30
     Davidson diagonalization with overlap
     ethr =  1.24E-06,  avg # of iterations =  2.0

     negative rho (up, down):  2.458E-02 2.458E-02
 
     Magnetic moment per site:
     atom:    1    charge:    0.4239    magn:    0.0000    constr:    0.0000
     atom:    2    charge:    0.7337    magn:    0.0000    constr:    0.0000
     atom:    3    charge:    0.7328    magn:    0.0000    constr:    0.0000
     atom:    4    charge:    0.7327    magn:    0.0000    constr:    0.0000
     atom:    5    charge:    0.7318    magn:    0.0000    constr:    0.0000

     total cpu time spent up to now is        2.2 secs

     The total energy is the sum of the following terms:

     one-electron contribution =     -19.40617678 Ry
     hartree contribution      =      10.33088258 Ry
     xc contribution           =      -7.21542972 Ry
     ewald contribution        =       0.88693575 Ry

     total energy              =     -15.40358374 Ry
     Harris-Foulkes estimate   =     -15.40358804 Ry
     estimated scf accuracy    <       0.00001796 Ry

     total magnetization       =     0.00 Bohr mag/cell
     absolute magnetization    =     0.00 Bohr mag/cell

     iteration #  7     ecut=    18.00 Ry     beta=0.30
     Davidson diagonalization with overlap
     ethr =  2.24E-07,  avg # of iterations =  1.0

     negative rho (up, down):  2.458E-02 2.458E-02
 
     Magnetic moment per site:
     atom:    1    charge:    0.4236    magn:    0.0000    constr:    0.0000
     atom:    2    charge:    0.7342    magn:    0.0000    constr:    0.0000
     atom:    3    charge:    0.7333    magn:    0.0000    constr:    0.0000
     atom:    4    charge:    0.7332    magn:    0.0000    constr:    0.0000
     atom:    5    charge:    0.7323    magn:    0.0000    constr:    0.0000

     total cpu time spent up to now is        2.3 secs

     The total energy is the sum of the following terms:

     one-electron contribution =     -19.40525044 Ry
     hartree contribution      =      10.33176071 Ry
     xc contribution           =      -7.21625960 Ry
     ewald contribution        =       0.88693575 Ry

     total energy              =     -15.40358263 Ry
     Harris-Foulkes estimate   =     -15.40358451 Ry
     estimated scf accuracy    <       0.00000546 Ry

     total magnetization       =     0.00 Bohr mag/cell
     absolute magnetization    =     0.00 Bohr mag/cell

     iteration #  8     ecut=    18.00 Ry     beta=0.30
     Davidson diagonalization with overlap
     ethr =  6.82E-08,  avg # of iterations =  2.0

     negative rho (up, down):  2.459E-02 2.459E-02
 
     Magnetic moment per site:
     atom:    1    charge:    0.4236    magn:    0.0000    constr:    0.0000
     atom:    2    charge:    0.7343    magn:    0.0000    constr:    0.0000
     atom:    3    charge:    0.7334    magn:    0.0000    constr:    0.0000
     atom:    4    charge:    0.7333    magn:    0.0000    constr:    0.0000
     atom:    5    charge:    0.7324    magn:    0.0000    constr:    0.0000

     total cpu time spent up to now is        2.3 secs

     The total energy is the sum of the following terms:

     one-electron contribution =     -19.40667953 Ry
     hartree contribution      =      10.33248546 Ry
     xc contribution           =      -7.21651388 Ry
     ewald contribution        =       0.88693575 Ry

     total energy              =     -15.40358321 Ry
     Harris-Foulkes estimate   =     -15.40358324 Ry
     estimated scf accuracy    <       0.00000044 Ry

     total magnetization       =     0.00 Bohr mag/cell
     absolute magnetization    =     0.00 Bohr mag/cell

     iteration #  9     ecut=    18.00 Ry     beta=0.30
     Davidson diagonalization with overlap
     ethr =  5.55E-09,  avg # of iterations =  2.0

     negative rho (up, down):  2.459E-02 2.459E-02
 
     Magnetic moment per site:
     atom:    1    charge:    0.4235    magn:    0.0000    constr:    0.0000
     atom:    2    charge:    0.7345    magn:    0.0000    constr:    0.0000
     atom:    3    charge:    0.7336    magn:    0.0000    constr:    0.0000
     atom:    4    charge:    0.7335    magn:    0.0000    constr:    0.0000
     atom:    5    charge:    0.7326    magn:    0.0000    constr:    0.0000

     total cpu time spent up to now is        2.4 secs

     The total energy is the sum of the following terms:

     one-electron contribution =     -19.40636625 Ry
     hartree contribution      =      10.33312307 Ry
     xc contribution           =      -7.21692183 Ry
     ewald contribution        =       0.88693575 Ry

     total energy              =     -15.40358311 Ry
     Harris-Foulkes estimate   =     -15.40358325 Ry
     estimated scf accuracy    <       0.00000032 Ry

     total magnetization       =     0.00 Bohr mag/cell
     absolute magnetization    =     0.00 Bohr mag/cell

     iteration # 10     ecut=    18.00 Ry     beta=0.30
     Davidson diagonalization with overlap
     ethr =  3.96E-09,  avg # of iterations =  2.0

     negative rho (up, down):  2.459E-02 2.459E-02
 
     Magnetic moment per site:
     atom:    1    charge:    0.4235    magn:    0.0000    constr:    0.0000
     atom:    2    charge:    0.7345    magn:    0.0000    constr:    0.0000
     atom:    3    charge:    0.7336    magn:    0.0000    constr:    0.0000
     atom:    4    charge:    0.7335    magn:    0.0000    constr:    0.0000
     atom:    5    charge:    0.7326    magn:    0.0000    constr:    0.0000

     total cpu time spent up to now is        2.4 secs

     The total energy is the sum of the following terms:

     one-electron contribution =     -19.40662922 Ry
     hartree contribution      =      10.33310713 Ry
     xc contribution           =      -7.21691510 Ry
     ewald contribution        =       0.88693575 Ry

     total energy              =     -15.40358316 Ry
     Harris-Foulkes estimate   =     -15.40358316 Ry
     estimated scf accuracy    <          2.5E-09 Ry

     total magnetization       =     0.00 Bohr mag/cell
     absolute magnetization    =     0.00 Bohr mag/cell

     iteration # 11     ecut=    18.00 Ry     beta=0.30
     Davidson diagonalization with overlap
     ethr =  3.07E-11,  avg # of iterations =  3.0

     negative rho (up, down):  2.459E-02 2.459E-02
 
     Magnetic moment per site:
     atom:    1    charge:    0.4235    magn:    0.0000    constr:    0.0000
     atom:    2    charge:    0.7345    magn:    0.0000    constr:    0.0000
     atom:    3    charge:    0.7336    magn:    0.0000    constr:    0.0000
     atom:    4    charge:    0.7335    magn:    0.0000    constr:    0.0000
     atom:    5    charge:    0.7326    magn:    0.0000    constr:    0.0000

     total cpu time spent up to now is        2.5 secs

     The total energy is the sum of the following terms:

     one-electron contribution =     -19.40663109 Ry
     hartree contribution      =      10.33300467 Ry
     xc contribution           =      -7.21688083 Ry
     ewald contribution        =       0.88693575 Ry

     total energy              =     -15.40358316 Ry
     Harris-Foulkes estimate   =     -15.40358316 Ry
     estimated scf accuracy    <          1.6E-09 Ry

     total magnetization       =     0.00 Bohr mag/cell
     absolute magnetization    =     0.00 Bohr mag/cell

     iteration # 12     ecut=    18.00 Ry     beta=0.30
     Davidson diagonalization with overlap
     ethr =  2.04E-11,  avg # of iterations =  2.0

     negative rho (up, down):  2.459E-02 2.459E-02
 
     Magnetic moment per site:
     atom:    1    charge:    0.4235    magn:    0.0000    constr:    0.0000
     atom:    2    charge:    0.7344    magn:    0.0000    constr:    0.0000
     atom:    3    charge:    0.7336    magn:    0.0000    constr:    0.0000
     atom:    4    charge:    0.7335    magn:    0.0000    constr:    0.0000
     atom:    5    charge:    0.7326    magn:    0.0000    constr:    0.0000

     total cpu time spent up to now is        2.5 secs

     The total energy is the sum of the following terms:

     one-electron contribution =     -19.40668322 Ry
     hartree contribution      =      10.33302231 Ry
     xc contribution           =      -7.21687378 Ry
     ewald contribution        =       0.88693575 Ry

     total energy              =     -15.40358316 Ry
     Harris-Foulkes estimate   =     -15.40358316 Ry
     estimated scf accuracy    <          8.0E-10 Ry

     total magnetization       =     0.00 Bohr mag/cell
     absolute magnetization    =     0.00 Bohr mag/cell

     iteration # 13     ecut=    18.00 Ry     beta=0.30
     Davidson diagonalization with overlap
     ethr =  9.98E-12,  avg # of iterations =  2.0

     negative rho (up, down):  2.459E-02 2.459E-02
 
     Magnetic moment per site:
     atom:    1    charge:    0.4235    magn:    0.0000    constr:    0.0000
     atom:    2    charge:    0.7344    magn:    0.0000    constr:    0.0000
     atom:    3    charge:    0.7336    magn:    0.0000    constr:    0.0000
     atom:    4    charge:    0.7335    magn:    0.0000    constr:    0.0000
     atom:    5    charge:    0.7326    magn:    0.0000    constr:    0.0000

     total cpu time spent up to now is        2.6 secs

     The total energy is the sum of the following terms:

     one-electron contribution =     -19.40664479 Ry
     hartree contribution      =      10.33301545 Ry
     xc contribution           =      -7.21687311 Ry
     ewald contribution        =       0.88693575 Ry

     total energy              =     -15.40358316 Ry
     Harris-Foulkes estimate   =     -15.40358316 Ry
     estimated scf accuracy    <          1.4E-10 Ry

     total magnetization       =     0.00 Bohr mag/cell
     absolute magnetization    =     0.00 Bohr mag/cell

     iteration # 14     ecut=    18.00 Ry     beta=0.30
     Davidson diagonalization with overlap
     ethr =  1.78E-12,  avg # of iterations =  1.0

     negative rho (up, down):  2.459E-02 2.459E-02
 
     Magnetic moment per site:
     atom:    1    charge:    0.4235    magn:    0.0000    constr:    0.0000
     atom:    2    charge:    0.7344    magn:    0.0000    constr:    0.0000
     atom:    3    charge:    0.7336    magn:    0.0000    constr:    0.0000
     atom:    4    charge:    0.7335    magn:    0.0000    constr:    0.0000
     atom:    5    charge:    0.7326    magn:    0.0000    constr:    0.0000

     total cpu time spent up to now is        2.7 secs

     End of self-consistent calculation

 ------ SPIN UP ------------


          k = 0.0000 0.0000 0.0000 (  1473 PWs)   bands (ev):

   -13.8918  -8.5303  -8.5065  -8.5017

 ------ SPIN DOWN ----------


          k = 0.0000 0.0000 0.0000 (  1473 PWs)   bands (ev):

   -13.8918  -8.5303  -8.5065  -8.5017

     highest occupied level (ev):    -8.5017

     The total energy is the sum of the following terms:

     one-electron contribution =     -19.40665222 Ry
     hartree contribution      =      10.33300601 Ry
     xc contribution           =      -7.21687270 Ry
     ewald contribution        =       0.88693575 Ry

!    total energy              =     -15.40358316 Ry
     Harris-Foulkes estimate   =     -15.40358316 Ry
     estimated scf accuracy    <          3.3E-11 Ry

     The total energy is the sum of the following terms:

     one-electron contribution =     -19.40665222 Ry
     hartree contribution      =      10.33300601 Ry
     xc contribution           =      -7.21687270 Ry
     ewald contribution        =       0.88693575 Ry
     electric field correction =       0.00000000 Ry

     total magnetization       =     0.00 Bohr mag/cell
     absolute magnetization    =     0.00 Bohr mag/cell

     convergence has been achieved in  14 iterations
 
     Using a distance-based cell
     Adding the potential well
        Amplitude [Ry a.u.] : -2.7531E-01
        Atom selected :           1
        Well size     :  2.6456E+00
 
 
     Using a distance-based cell
     Adding the potential well
        Amplitude [Ry a.u.] : -2.7531E-01
        Atom selected :           1
        Well size     :  2.6456E+00
 
     E field correction :    1.22041449665530       Ry
     #e's   in well     :   0.865872278514374       electrons
     Surplus/deficit electrons    :    0.134127721485626      electrons
     epcdft_thr                   :    1.000000000000000E-006 electrons
 
     -----------------------------------------------
 
                      SCF converged but...
 
     electron localization condition NOT satisfied
     restarting scf with different applied potential
 
     New field Amp      :  -0.302836750461903       Ry
     charge density from previous step

     Check: negative/imaginary core charge=   -0.000002    0.000000

     negative rho (up, down):  2.459E-02 2.459E-02
 
     Using a distance-based cell
     Adding the potential well
        Amplitude [Ry a.u.] : -3.0284E-01
        Atom selected :           1
        Well size     :  2.6456E+00
 

     total cpu time spent up to now is        2.7 secs

     per-process dynamical memory:    10.6 Mb

     Self-consistent Calculation

     iteration #  1     ecut=    18.00 Ry     beta=0.30
     Davidson diagonalization with overlap
     ethr =  1.78E-12,  avg # of iterations =  9.0

     negative rho (up, down):  2.490E-02 2.490E-02
 
     Magnetic moment per site:
     atom:    1    charge:    0.4264    magn:    0.0000    constr:    0.0000
     atom:    2    charge:    0.7336    magn:    0.0000    constr:    0.0000
     atom:    3    charge:    0.7326    magn:    0.0000    constr:    0.0000
     atom:    4    charge:    0.7326    magn:    0.0000    constr:    0.0000
     atom:    5    charge:    0.7316    magn:    0.0000    constr:    0.0000

     total cpu time spent up to now is        2.8 secs

     The total energy is the sum of the following terms:

     one-electron contribution =     -19.61882237 Ry
     hartree contribution      =      10.36718786 Ry
     xc contribution           =      -7.22419999 Ry
     ewald contribution        =       0.88693575 Ry

     total energy              =     -15.52609919 Ry
     Harris-Foulkes estimate   =     -15.52643632 Ry
     estimated scf accuracy    <       0.00091980 Ry

     total magnetization       =     0.00 Bohr mag/cell
     absolute magnetization    =     0.00 Bohr mag/cell

     iteration #  2     ecut=    18.00 Ry     beta=0.30
     Davidson diagonalization with overlap
     ethr =  1.15E-05,  avg # of iterations =  1.0

     negative rho (up, down):  2.514E-02 2.514E-02
 
     Magnetic moment per site:
     atom:    1    charge:    0.4286    magn:    0.0000    constr:    0.0000
     atom:    2    charge:    0.7329    magn:    0.0000    constr:    0.0000
     atom:    3    charge:    0.7318    magn:    0.0000    constr:    0.0000
     atom:    4    charge:    0.7319    magn:    0.0000    constr:    0.0000
     atom:    5    charge:    0.7308    magn:    0.0000    constr:    0.0000

     total cpu time spent up to now is        2.8 secs

     The total energy is the sum of the following terms:

     one-electron contribution =     -19.59664380 Ry
     hartree contribution      =      10.39527582 Ry
     xc contribution           =      -7.23008450 Ry
     ewald contribution        =       0.88693575 Ry

     total energy              =     -15.52604388 Ry
     Harris-Foulkes estimate   =     -15.52614915 Ry
     estimated scf accuracy    <       0.00018775 Ry

     total magnetization       =     0.00 Bohr mag/cell
     absolute magnetization    =     0.00 Bohr mag/cell

     iteration #  3     ecut=    18.00 Ry     beta=0.30
     Davidson diagonalization with overlap
     ethr =  2.35E-06,  avg # of iterations =  2.0

     negative rho (up, down):  2.514E-02 2.514E-02
 
     Magnetic moment per site:
     atom:    1    charge:    0.4285    magn:    0.0000    constr:    0.0000
     atom:    2    charge:    0.7329    magn:    0.0000    constr:    0.0000
     atom:    3    charge:    0.7318    magn:    0.0000    constr:    0.0000
     atom:    4    charge:    0.7319    magn:    0.0000    constr:    0.0000
     atom:    5    charge:    0.7309    magn:    0.0000    constr:    0.0000

     total cpu time spent up to now is        3.0 secs

     The total energy is the sum of the following terms:

     one-electron contribution =     -19.57910609 Ry
     hartree contribution      =      10.39529829 Ry
     xc contribution           =      -7.23017548 Ry
     ewald contribution        =       0.88693575 Ry

     total energy              =     -15.52608621 Ry
     Harris-Foulkes estimate   =     -15.52608650 Ry
     estimated scf accuracy    <       0.00000381 Ry

     total magnetization       =     0.00 Bohr mag/cell
     absolute magnetization    =     0.00 Bohr mag/cell

     iteration #  4     ecut=    18.00 Ry     beta=0.30
     Davidson diagonalization with overlap
     ethr =  4.76E-08,  avg # of iterations =  1.0

     negative rho (up, down):  2.509E-02 2.509E-02
 
     Magnetic moment per site:
     atom:    1    charge:    0.4279    magn:    0.0000    constr:    0.0000
     atom:    2    charge:    0.7336    magn:    0.0000    constr:    0.0000
     atom:    3    charge:    0.7325    magn:    0.0000    constr:    0.0000
     atom:    4    charge:    0.7326    magn:    0.0000    constr:    0.0000
     atom:    5    charge:    0.7316    magn:    0.0000    constr:    0.0000

     total cpu time spent up to now is        3.0 secs

     The total energy is the sum of the following terms:

     one-electron contribution =     -19.57923094 Ry
     hartree contribution      =      10.39758886 Ry
     xc contribution           =      -7.23151544 Ry
     ewald contribution        =       0.88693575 Ry

     total energy              =     -15.52608496 Ry
     Harris-Foulkes estimate   =     -15.52608629 Ry
     estimated scf accuracy    <       0.00000303 Ry

     total magnetization       =     0.00 Bohr mag/cell
     absolute magnetization    =     0.00 Bohr mag/cell

     iteration #  5     ecut=    18.00 Ry     beta=0.30
     Davidson diagonalization with overlap
     ethr =  3.79E-08,  avg # of iterations =  2.0

     negative rho (up, down):  2.509E-02 2.509E-02
 
     Magnetic moment per site:
     atom:    1    charge:    0.4279    magn:    0.0000    constr:    0.0000
     atom:    2    charge:    0.7336    magn:    0.0000    constr:    0.0000
     atom:    3    charge:    0.7326    magn:    0.0000    constr:    0.0000
     atom:    4    charge:    0.7326    magn:    0.0000    constr:    0.0000
     atom:    5    charge:    0.7316    magn:    0.0000    constr:    0.0000

     total cpu time spent up to now is        3.1 secs

     The total energy is the sum of the following terms:

     one-electron contribution =     -19.58014888 Ry
     hartree contribution      =      10.39838575 Ry
     xc contribution           =      -7.23172009 Ry
     ewald contribution        =       0.88693575 Ry

     total energy              =     -15.52608537 Ry
     Harris-Foulkes estimate   =     -15.52608544 Ry
     estimated scf accuracy    <       0.00000022 Ry

     total magnetization       =     0.00 Bohr mag/cell
     absolute magnetization    =     0.00 Bohr mag/cell

     iteration #  6     ecut=    18.00 Ry     beta=0.30
     Davidson diagonalization with overlap
     ethr =  2.72E-09,  avg # of iterations =  2.0

     negative rho (up, down):  2.509E-02 2.509E-02
 
     Magnetic moment per site:
     atom:    1    charge:    0.4279    magn:    0.0000    constr:    0.0000
     atom:    2    charge:    0.7336    magn:    0.0000    constr:    0.0000
     atom:    3    charge:    0.7325    magn:    0.0000    constr:    0.0000
     atom:    4    charge:    0.7326    magn:    0.0000    constr:    0.0000
     atom:    5    charge:    0.7315    magn:    0.0000    constr:    0.0000

     total cpu time spent up to now is        3.1 secs

     The total energy is the sum of the following terms:

     one-electron contribution =     -19.57973051 Ry
     hartree contribution      =      10.39825679 Ry
     xc contribution           =      -7.23165444 Ry
     ewald contribution        =       0.88693575 Ry

     total energy              =     -15.52608539 Ry
     Harris-Foulkes estimate   =     -15.52608540 Ry
     estimated scf accuracy    <       0.00000005 Ry

     total magnetization       =     0.00 Bohr mag/cell
     absolute magnetization    =     0.00 Bohr mag/cell

     iteration #  7     ecut=    18.00 Ry     beta=0.30
     Davidson diagonalization with overlap
     ethr =  6.01E-10,  avg # of iterations =  1.0

     negative rho (up, down):  2.509E-02 2.509E-02
 
     Magnetic moment per site:
     atom:    1    charge:    0.4279    magn:    0.0000    constr:    0.0000
     atom:    2    charge:    0.7336    magn:    0.0000    constr:    0.0000
     atom:    3    charge:    0.7325    magn:    0.0000    constr:    0.0000
     atom:    4    charge:    0.7326    magn:    0.0000    constr:    0.0000
     atom:    5    charge:    0.7315    magn:    0.0000    constr:    0.0000

     total cpu time spent up to now is        3.2 secs

     The total energy is the sum of the following terms:

     one-electron contribution =     -19.57972797 Ry
     hartree contribution      =      10.39821686 Ry
     xc contribution           =      -7.23160222 Ry
     ewald contribution        =       0.88693575 Ry

     total energy              =     -15.52608539 Ry
     Harris-Foulkes estimate   =     -15.52608539 Ry
     estimated scf accuracy    <       0.00000002 Ry

     total magnetization       =     0.00 Bohr mag/cell
     absolute magnetization    =     0.00 Bohr mag/cell

     iteration #  8     ecut=    18.00 Ry     beta=0.30
     Davidson diagonalization with overlap
     ethr =  2.03E-10,  avg # of iterations =  2.0

     negative rho (up, down):  2.509E-02 2.509E-02
 
     Magnetic moment per site:
     atom:    1    charge:    0.4279    magn:    0.0000    constr:    0.0000
     atom:    2    charge:    0.7336    magn:    0.0000    constr:    0.0000
     atom:    3    charge:    0.7325    magn:    0.0000    constr:    0.0000
     atom:    4    charge:    0.7326    magn:    0.0000    constr:    0.0000
     atom:    5    charge:    0.7315    magn:    0.0000    constr:    0.0000

     total cpu time spent up to now is        3.2 secs

     The total energy is the sum of the following terms:

     one-electron contribution =     -19.57960380 Ry
     hartree contribution      =      10.39818886 Ry
     xc contribution           =      -7.23160168 Ry
     ewald contribution        =       0.88693575 Ry

     total energy              =     -15.52608539 Ry
     Harris-Foulkes estimate   =     -15.52608539 Ry
     estimated scf accuracy    <          5.1E-10 Ry

     total magnetization       =     0.00 Bohr mag/cell
     absolute magnetization    =     0.00 Bohr mag/cell

     iteration #  9     ecut=    18.00 Ry     beta=0.30
     Davidson diagonalization with overlap
     ethr =  6.38E-12,  avg # of iterations =  2.0

     negative rho (up, down):  2.509E-02 2.509E-02
 
     Magnetic moment per site:
     atom:    1    charge:    0.4279    magn:    0.0000    constr:    0.0000
     atom:    2    charge:    0.7336    magn:    0.0000    constr:    0.0000
     atom:    3    charge:    0.7325    magn:    0.0000    constr:    0.0000
     atom:    4    charge:    0.7326    magn:    0.0000    constr:    0.0000
     atom:    5    charge:    0.7315    magn:    0.0000    constr:    0.0000

     total cpu time spent up to now is        3.3 secs

     End of self-consistent calculation

 ------ SPIN UP ------------


          k = 0.0000 0.0000 0.0000 (  1473 PWs)   bands (ev):

   -14.0220  -8.6266  -8.6003  -8.5958

 ------ SPIN DOWN ----------


          k = 0.0000 0.0000 0.0000 (  1473 PWs)   bands (ev):

   -14.0220  -8.6266  -8.6003  -8.5958

     highest occupied level (ev):    -8.5958

     The total energy is the sum of the following terms:

     one-electron contribution =     -19.57963903 Ry
     hartree contribution      =      10.39823191 Ry
     xc contribution           =      -7.23161402 Ry
     ewald contribution        =       0.88693575 Ry

!    total energy              =     -15.52608539 Ry
     Harris-Foulkes estimate   =     -15.52608539 Ry
     estimated scf accuracy    <          9.6E-11 Ry

     The total energy is the sum of the following terms:

     one-electron contribution =     -19.57963903 Ry
     hartree contribution      =      10.39823191 Ry
     xc contribution           =      -7.23161402 Ry
     ewald contribution        =       0.88693575 Ry
     electric field correction =       0.00000000 Ry

     total magnetization       =     0.00 Bohr mag/cell
     absolute magnetization    =     0.00 Bohr mag/cell

     convergence has been achieved in   9 iterations
 
     Using a distance-based cell
     Adding the potential well
        Amplitude [Ry a.u.] : -3.0284E-01
        Atom selected :           1
        Well size     :  2.6456E+00
 
 
     Using a distance-based cell
     Adding the potential well
        Amplitude [Ry a.u.] : -3.0284E-01
        Atom selected :           1
        Well size     :  2.6456E+00
 
     E field correction :    1.35258661169133       Ry
     #e's   in well     :   0.932777211671223       electrons
     Surplus/deficit electrons    :    6.722278832877704E-002 electrons
     epcdft_thr                   :    1.000000000000000E-006 electrons
 
     -----------------------------------------------
 
                      SCF converged but...
 
     electron localization condition NOT satisfied
     restarting scf with different applied potential
 
     New field Amp      :  -0.330498163898305       Ry
     charge density from previous step

     Check: negative/imaginary core charge=   -0.000002    0.000000

     negative rho (up, down):  2.509E-02 2.509E-02
 
     Using a distance-based cell
     Adding the potential well
        Amplitude [Ry a.u.] : -3.3050E-01
        Atom selected :           1
        Well size     :  2.6456E+00
 

     total cpu time spent up to now is        3.4 secs

     per-process dynamical memory:    10.6 Mb

     Self-consistent Calculation

     iteration #  1     ecut=    18.00 Ry     beta=0.30
     Davidson diagonalization with overlap
     ethr =  6.38E-12,  avg # of iterations =  9.0

     negative rho (up, down):  2.539E-02 2.539E-02
 
     Magnetic moment per site:
     atom:    1    charge:    0.4308    magn:    0.0000    constr:    0.0000
     atom:    2    charge:    0.7327    magn:    0.0000    constr:    0.0000
     atom:    3    charge:    0.7315    magn:    0.0000    constr:    0.0000
     atom:    4    charge:    0.7317    magn:    0.0000    constr:    0.0000
     atom:    5    charge:    0.7305    magn:    0.0000    constr:    0.0000

     total cpu time spent up to now is        3.5 secs

     The total energy is the sum of the following terms:

     one-electron contribution =     -19.79353706 Ry
     hartree contribution      =      10.43248728 Ry
     xc contribution           =      -7.23894876 Ry
     ewald contribution        =       0.88693575 Ry

     total energy              =     -15.65010927 Ry
     Harris-Foulkes estimate   =     -15.65044590 Ry
     estimated scf accuracy    <       0.00091870 Ry

     total magnetization       =     0.00 Bohr mag/cell
     absolute magnetization    =     0.00 Bohr mag/cell

     iteration #  2     ecut=    18.00 Ry     beta=0.30
     Davidson diagonalization with overlap
     ethr =  1.15E-05,  avg # of iterations =  1.0

     negative rho (up, down):  2.564E-02 2.564E-02
 
     Magnetic moment per site:
     atom:    1    charge:    0.4330    magn:    0.0000    constr:    0.0000
     atom:    2    charge:    0.7320    magn:    0.0000    constr:    0.0000
     atom:    3    charge:    0.7306    magn:    0.0000    constr:    0.0000
     atom:    4    charge:    0.7309    magn:    0.0000    constr:    0.0000
     atom:    5    charge:    0.7296    magn:    0.0000    constr:    0.0000

     total cpu time spent up to now is        3.5 secs

     The total energy is the sum of the following terms:

     one-electron contribution =     -19.77139368 Ry
     hartree contribution      =      10.46074625 Ry
     xc contribution           =      -7.24486274 Ry
     ewald contribution        =       0.88693575 Ry

     total energy              =     -15.65005318 Ry
     Harris-Foulkes estimate   =     -15.65015898 Ry
     estimated scf accuracy    <       0.00018832 Ry

     total magnetization       =     0.00 Bohr mag/cell
     absolute magnetization    =     0.00 Bohr mag/cell

     iteration #  3     ecut=    18.00 Ry     beta=0.30
     Davidson diagonalization with overlap
     ethr =  2.35E-06,  avg # of iterations =  2.0

     negative rho (up, down):  2.564E-02 2.564E-02
 
     Magnetic moment per site:
     atom:    1    charge:    0.4329    magn:    0.0000    constr:    0.0000
     atom:    2    charge:    0.7320    magn:    0.0000    constr:    0.0000
     atom:    3    charge:    0.7307    magn:    0.0000    constr:    0.0000
     atom:    4    charge:    0.7310    magn:    0.0000    constr:    0.0000
     atom:    5    charge:    0.7297    magn:    0.0000    constr:    0.0000

     total cpu time spent up to now is        3.6 secs

     The total energy is the sum of the following terms:

     one-electron contribution =     -19.75377343 Ry
     hartree contribution      =      10.46075994 Ry
     xc contribution           =      -7.24495340 Ry
     ewald contribution        =       0.88693575 Ry

     total energy              =     -15.65009582 Ry
     Harris-Foulkes estimate   =     -15.65009612 Ry
     estimated scf accuracy    <       0.00000390 Ry

     total magnetization       =     0.00 Bohr mag/cell
     absolute magnetization    =     0.00 Bohr mag/cell

     iteration #  4     ecut=    18.00 Ry     beta=0.30
     Davidson diagonalization with overlap
     ethr =  4.88E-08,  avg # of iterations =  1.0

     negative rho (up, down):  2.559E-02 2.559E-02
 
     Magnetic moment per site:
     atom:    1    charge:    0.4322    magn:    0.0000    constr:    0.0000
     atom:    2    charge:    0.7327    magn:    0.0000    constr:    0.0000
     atom:    3    charge:    0.7314    magn:    0.0000    constr:    0.0000
     atom:    4    charge:    0.7317    magn:    0.0000    constr:    0.0000
     atom:    5    charge:    0.7304    magn:    0.0000    constr:    0.0000

     total cpu time spent up to now is        3.6 secs

     The total energy is the sum of the following terms:

     one-electron contribution =     -19.75391113 Ry
     hartree contribution      =      10.46313211 Ry
     xc contribution           =      -7.24633428 Ry
     ewald contribution        =       0.88693575 Ry

     total energy              =     -15.65009454 Ry
     Harris-Foulkes estimate   =     -15.65009591 Ry
     estimated scf accuracy    <       0.00000310 Ry

     total magnetization       =     0.00 Bohr mag/cell
     absolute magnetization    =     0.00 Bohr mag/cell

     iteration #  5     ecut=    18.00 Ry     beta=0.30
     Davidson diagonalization with overlap
     ethr =  3.88E-08,  avg # of iterations =  2.0

     negative rho (up, down):  2.559E-02 2.559E-02
 
     Magnetic moment per site:
[...]
     ewald contribution        =       0.88693575 Ry

!    total energy              =     -15.65068464 Ry
     Harris-Foulkes estimate   =     -15.65068464 Ry
     estimated scf accuracy    <          2.7E-12 Ry

     The total energy is the sum of the following terms:

     one-electron contribution =     -19.75516149 Ry
     hartree contribution      =      10.46401317 Ry
     xc contribution           =      -7.24647207 Ry
     ewald contribution        =       0.88693575 Ry
     electric field correction =       0.00000000 Ry

     total magnetization       =     0.00 Bohr mag/cell
     absolute magnetization    =     0.00 Bohr mag/cell

     convergence has been achieved in   1 iterations
 
     Using a distance-based cell
     Adding the potential well
        Amplitude [Ry a.u.] : -3.3063E-01
        Atom selected :           1
        Well size     :  2.6456E+00
 
 
     Using a distance-based cell
     Adding the potential well
        Amplitude [Ry a.u.] : -3.3063E-01
        Atom selected :           1
        Well size     :  2.6456E+00
 
     E field correction :    1.48783088641284       Ry
     #e's   in well     :   0.999996935926722       electrons
     Surplus/deficit electrons    :    3.064073277769808E-006 electrons
     epcdft_thr                   :    1.000000000000000E-006 electrons
 
     -----------------------------------------------
 
                      SCF converged but...
 
     electron localization condition NOT satisfied
     restarting scf with different applied potential
 
     New field Amp      :  -0.330629198631602       Ry
     charge density from previous step

     Check: negative/imaginary core charge=   -0.000002    0.000000

     negative rho (up, down):  2.559E-02 2.559E-02
 
     Using a distance-based cell
     Adding the potential well
        Amplitude [Ry a.u.] : -3.3063E-01
        Atom selected :           1
        Well size     :  2.6456E+00
 

     total cpu time spent up to now is        5.6 secs

     per-process dynamical memory:    10.6 Mb

     Self-consistent Calculation

     iteration #  1     ecut=    18.00 Ry     beta=0.30
     Davidson diagonalization with overlap
     ethr =  1.02E-13,  avg # of iterations =  2.0

     negative rho (up, down):  2.559E-02 2.559E-02
 
     Magnetic moment per site:
     atom:    1    charge:    0.4323    magn:    0.0000    constr:    0.0000
     atom:    2    charge:    0.7327    magn:    0.0000    constr:    0.0000
     atom:    3    charge:    0.7314    magn:    0.0000    constr:    0.0000
     atom:    4    charge:    0.7317    magn:    0.0000    constr:    0.0000
     atom:    5    charge:    0.7304    magn:    0.0000    constr:    0.0000

     total cpu time spent up to now is        5.7 secs

     End of self-consistent calculation

 ------ SPIN UP ------------


          k = 0.0000 0.0000 0.0000 (  1473 PWs)   bands (ev):

   -14.1548  -8.7255  -8.6966  -8.6923

 ------ SPIN DOWN ----------


          k = 0.0000 0.0000 0.0000 (  1473 PWs)   bands (ev):

   -14.1548  -8.7255  -8.6966  -8.6923

     highest occupied level (ev):    -8.6923

     The total energy is the sum of the following terms:

     one-electron contribution =     -19.75516546 Ry
     hartree contribution      =      10.46401812 Ry
     xc contribution           =      -7.24647305 Ry
     ewald contribution        =       0.88693575 Ry

!    total energy              =     -15.65068464 Ry
     Harris-Foulkes estimate   =     -15.65068464 Ry
     estimated scf accuracy    <          2.0E-12 Ry

     The total energy is the sum of the following terms:

     one-electron contribution =     -19.75516546 Ry
     hartree contribution      =      10.46401812 Ry
     xc contribution           =      -7.24647305 Ry
     ewald contribution        =       0.88693575 Ry
     electric field correction =       0.00000000 Ry

     total magnetization       =     0.00 Bohr mag/cell
     absolute magnetization    =     0.00 Bohr mag/cell

     convergence has been achieved in   1 iterations
 
     Using a distance-based cell
     Adding the potential well
        Amplitude [Ry a.u.] : -3.3063E-01
        Atom selected :           1
        Well size     :  2.6456E+00
 
 
     Using a distance-based cell
     Adding the potential well
        Amplitude [Ry a.u.] : -3.3063E-01
        Atom selected :           1
        Well size     :  2.6456E+00
 
     E field correction :    1.48783173176165       Ry
     #e's   in well     :    1.00000204409919       electrons
     Surplus/deficit electrons    :   -2.044099193021509E-006 electrons
     epcdft_thr                   :    1.000000000000000E-006 electrons
 
     -----------------------------------------------
 
                      SCF converged but...
 
     electron localization condition NOT satisfied
     restarting scf with different applied potential
 
     New field Amp      :  -0.330629198552164       Ry
     charge density from previous step

     Check: negative/imaginary core charge=   -0.000002    0.000000

     negative rho (up, down):  2.559E-02 2.559E-02
 
     Using a distance-based cell
     Adding the potential well
        Amplitude [Ry a.u.] : -3.3063E-01
        Atom selected :           1
        Well size     :  2.6456E+00
 

     total cpu time spent up to now is        5.7 secs

     per-process dynamical memory:    10.6 Mb

     Self-consistent Calculation

     iteration #  1     ecut=    18.00 Ry     beta=0.30
     Davidson diagonalization with overlap
     ethr =  1.02E-13,  avg # of iterations =  2.0

     negative rho (up, down):  2.559E-02 2.559E-02
 
     Magnetic moment per site:
     atom:    1    charge:    0.4323    magn:    0.0000    constr:    0.0000
     atom:    2    charge:    0.7327    magn:    0.0000    constr:    0.0000
     atom:    3    charge:    0.7314    magn:    0.0000    constr:    0.0000
     atom:    4    charge:    0.7317    magn:    0.0000    constr:    0.0000
     atom:    5    charge:    0.7304    magn:    0.0000    constr:    0.0000

     total cpu time spent up to now is        5.8 secs

     End of self-consistent calculation

 ------ SPIN UP ------------


          k = 0.0000 0.0000 0.0000 (  1473 PWs)   bands (ev):

   -14.1548  -8.7255  -8.6966  -8.6923

 ------ SPIN DOWN ----------


          k = 0.0000 0.0000 0.0000 (  1473 PWs)   bands (ev):

   -14.1548  -8.7255  -8.6966  -8.6923

     highest occupied level (ev):    -8.6923

     The total energy is the sum of the following terms:

     one-electron contribution =     -19.75516198 Ry
     hartree contribution      =      10.46401377 Ry
     xc contribution           =      -7.24647218 Ry
     ewald contribution        =       0.88693575 Ry

!    total energy              =     -15.65068464 Ry
     Harris-Foulkes estimate   =     -15.65068464 Ry
     estimated scf accuracy    <          1.6E-12 Ry

     The total energy is the sum of the following terms:

     one-electron contribution =     -19.75516198 Ry
     hartree contribution      =      10.46401377 Ry
     xc contribution           =      -7.24647218 Ry
     ewald contribution        =       0.88693575 Ry
     electric field correction =       0.00000000 Ry

     total magnetization       =     0.00 Bohr mag/cell
     absolute magnetization    =     0.00 Bohr mag/cell

     convergence has been achieved in   1 iterations
 
     Using a distance-based cell
     Adding the potential well
        Amplitude [Ry a.u.] : -3.3063E-01
        Atom selected :           1
        Well size     :  2.6456E+00
 
 
     Using a distance-based cell
     Adding the potential well
        Amplitude [Ry a.u.] : -3.3063E-01
        Atom selected :           1
        Well size     :  2.6456E+00
 
     E field correction :    1.48783099144649       Ry
     #e's   in well     :   0.999997568041489       electrons
     Surplus/deficit electrons    :    2.431958511461829E-006 electrons
     epcdft_thr                   :    1.000000000000000E-006 electrons
 
     -----------------------------------------------
 
                      SCF converged but...
 
     electron localization condition NOT satisfied
     restarting scf with different applied potential
 
     New field Amp      :  -0.330629198595324       Ry
     charge density from previous step

     Check: negative/imaginary core charge=   -0.000002    0.000000

     negative rho (up, down):  2.559E-02 2.559E-02
 
     Using a distance-based cell
     Adding the potential well
        Amplitude [Ry a.u.] : -3.3063E-01
        Atom selected :           1
        Well size     :  2.6456E+00
 

     total cpu time spent up to now is        5.8 secs

     per-process dynamical memory:    10.6 Mb

     Self-consistent Calculation

     iteration #  1     ecut=    18.00 Ry     beta=0.30
     Davidson diagonalization with overlap
     ethr =  1.02E-13,  avg # of iterations =  2.0

     negative rho (up, down):  2.559E-02 2.559E-02
 
     Magnetic moment per site:
     atom:    1    charge:    0.4323    magn:    0.0000    constr:    0.0000
     atom:    2    charge:    0.7327    magn:    0.0000    constr:    0.0000
     atom:    3    charge:    0.7314    magn:    0.0000    constr:    0.0000
     atom:    4    charge:    0.7317    magn:    0.0000    constr:    0.0000
     atom:    5    charge:    0.7304    magn:    0.0000    constr:    0.0000

     total cpu time spent up to now is        5.9 secs

     End of self-consistent calculation

 ------ SPIN UP ------------


          k = 0.0000 0.0000 0.0000 (  1473 PWs)   bands (ev):

   -14.1548  -8.7255  -8.6966  -8.6923

 ------ SPIN DOWN ----------


          k = 0.0000 0.0000 0.0000 (  1473 PWs)   bands (ev):

   -14.1548  -8.7255  -8.6966  -8.6923

     highest occupied level (ev):    -8.6923

     The total energy is the sum of the following terms:

     one-electron contribution =     -19.75516502 Ry
     hartree contribution      =      10.46401758 Ry
     xc contribution           =      -7.24647295 Ry
     ewald contribution        =       0.88693575 Ry

!    total energy              =     -15.65068464 Ry
     Harris-Foulkes estimate   =     -15.65068464 Ry
     estimated scf accuracy    <          1.2E-12 Ry

     The total energy is the sum of the following terms:

     one-electron contribution =     -19.75516502 Ry
     hartree contribution      =      10.46401758 Ry
     xc contribution           =      -7.24647295 Ry
     ewald contribution        =       0.88693575 Ry
     electric field correction =       0.00000000 Ry

     total magnetization       =     0.00 Bohr mag/cell
     absolute magnetization    =     0.00 Bohr mag/cell

     convergence has been achieved in   1 iterations
 
     Using a distance-based cell
     Adding the potential well
        Amplitude [Ry a.u.] : -3.3063E-01
        Atom selected :           1
        Well size     :  2.6456E+00
 
 
     Using a distance-based cell
     Adding the potential well
        Amplitude [Ry a.u.] : -3.3063E-01
        Atom selected :           1
        Well size     :  2.6456E+00
 
     E field correction :    1.48783163899589       Ry
     #e's   in well     :    1.00000148393993       electrons
     Surplus/deficit electrons    :   -1.483939932267475E-006 electrons
     epcdft_thr                   :    1.000000000000000E-006 electrons
 
     -----------------------------------------------
 
                      SCF converged but...
 
     electron localization condition NOT satisfied
     restarting scf with different applied potential
 
     New field Amp      :  -0.330629198578968       Ry
     charge density from previous step

     Check: negative/imaginary core charge=   -0.000002    0.000000

     negative rho (up, down):  2.559E-02 2.559E-02
 
     Using a distance-based cell
     Adding the potential well
        Amplitude [Ry a.u.] : -3.3063E-01
        Atom selected :           1
        Well size     :  2.6456E+00
 

     total cpu time spent up to now is        5.9 secs

     per-process dynamical memory:    10.6 Mb

     Self-consistent Calculation

     iteration #  1     ecut=    18.00 Ry     beta=0.30
     Davidson diagonalization with overlap
     ethr =  1.02E-13,  avg # of iterations =  1.0

     Threshold (ethr) on eigenvalues was too large:
     Diagonalizing with lowered threshold

     Davidson diagonalization with overlap
     ethr =  1.01E-14,  avg # of iterations =  1.0

     negative rho (up, down):  2.559E-02 2.559E-02
 
     Magnetic moment per site:
     atom:    1    charge:    0.4323    magn:    0.0000    constr:    0.0000
     atom:    2    charge:    0.7327    magn:    0.0000    constr:    0.0000
     atom:    3    charge:    0.7314    magn:    0.0000    constr:    0.0000
     atom:    4    charge:    0.7317    magn:    0.0000    constr:    0.0000
     atom:    5    charge:    0.7304    magn:    0.0000    constr:    0.0000

     total cpu time spent up to now is        6.0 secs

     End of self-consistent calculation

 ------ SPIN UP ------------


          k = 0.0000 0.0000 0.0000 (  1473 PWs)   bands (ev):

   -14.1548  -8.7255  -8.6966  -8.6923

 ------ SPIN DOWN ----------


          k = 0.0000 0.0000 0.0000 (  1473 PWs)   bands (ev):

   -14.1548  -8.7255  -8.6966  -8.6923

     highest occupied level (ev):    -8.6923

     The total energy is the sum of the following terms:

     one-electron contribution =     -19.75516248 Ry
     hartree contribution      =      10.46401439 Ry
     xc contribution           =      -7.24647231 Ry
     ewald contribution        =       0.88693575 Ry

!    total energy              =     -15.65068464 Ry
     Harris-Foulkes estimate   =     -15.65068464 Ry
     estimated scf accuracy    <          8.3E-13 Ry

     The total energy is the sum of the following terms:

     one-electron contribution =     -19.75516248 Ry
     hartree contribution      =      10.46401439 Ry
     xc contribution           =      -7.24647231 Ry
     ewald contribution        =       0.88693575 Ry
     electric field correction =       0.00000000 Ry

     total magnetization       =     0.00 Bohr mag/cell
     absolute magnetization    =     0.00 Bohr mag/cell

     convergence has been achieved in   1 iterations
 
     Using a distance-based cell
     Adding the potential well
        Amplitude [Ry a.u.] : -3.3063E-01
        Atom selected :           1
        Well size     :  2.6456E+00
 
 
     Using a distance-based cell
     Adding the potential well
        Amplitude [Ry a.u.] : -3.3063E-01
        Atom selected :           1
        Well size     :  2.6456E+00
 
     E field correction :    1.48783109738896       Ry
     #e's   in well     :   0.999998208165543       electrons
     Surplus/deficit electrons    :    1.791834456810193E-006 electrons
     epcdft_thr                   :    1.000000000000000E-006 electrons
 
     -----------------------------------------------
 
                      SCF converged but...
 
     electron localization condition NOT satisfied
     restarting scf with different applied potential
 
     New field Amp      :  -0.330629198587915       Ry
     charge density from previous step

     Check: negative/imaginary core charge=   -0.000002    0.000000

     negative rho (up, down):  2.559E-02 2.559E-02
 
     Using a distance-based cell
     Adding the potential well
        Amplitude [Ry a.u.] : -3.3063E-01
        Atom selected :           1
        Well size     :  2.6456E+00
 

     total cpu time spent up to now is        6.0 secs

     per-process dynamical memory:    10.6 Mb

     Self-consistent Calculation

     iteration #  1     ecut=    18.00 Ry     beta=0.30
     Davidson diagonalization with overlap
     ethr =  1.01E-14,  avg # of iterations =  2.0

     negative rho (up, down):  2.559E-02 2.559E-02
 
     Magnetic moment per site:
     atom:    1    charge:    0.4323    magn:    0.0000    constr:    0.0000
     atom:    2    charge:    0.7327    magn:    0.0000    constr:    0.0000
     atom:    3    charge:    0.7314    magn:    0.0000    constr:    0.0000
     atom:    4    charge:    0.7317    magn:    0.0000    constr:    0.0000
     atom:    5    charge:    0.7304    magn:    0.0000    constr:    0.0000

     total cpu time spent up to now is        6.1 secs

     End of self-consistent calculation

 ------ SPIN UP ------------


          k = 0.0000 0.0000 0.0000 (  1473 PWs)   bands (ev):

   -14.1548  -8.7255  -8.6966  -8.6923

 ------ SPIN DOWN ----------


          k = 0.0000 0.0000 0.0000 (  1473 PWs)   bands (ev):

   -14.1548  -8.7255  -8.6966  -8.6923

     highest occupied level (ev):    -8.6923

     The total energy is the sum of the following terms:

     one-electron contribution =     -19.75516459 Ry
     hartree contribution      =      10.46401704 Ry
     xc contribution           =      -7.24647284 Ry
     ewald contribution        =       0.88693575 Ry

!    total energy              =     -15.65068464 Ry
     Harris-Foulkes estimate   =     -15.65068464 Ry
     estimated scf accuracy    <          5.7E-13 Ry

     The total energy is the sum of the following terms:

     one-electron contribution =     -19.75516459 Ry
     hartree contribution      =      10.46401704 Ry
     xc contribution           =      -7.24647284 Ry
     ewald contribution        =       0.88693575 Ry
     electric field correction =       0.00000000 Ry

     total magnetization       =     0.00 Bohr mag/cell
     absolute magnetization    =     0.00 Bohr mag/cell

     convergence has been achieved in   1 iterations
 
     Using a distance-based cell
     Adding the potential well
        Amplitude [Ry a.u.] : -3.3063E-01
        Atom selected :           1
        Well size     :  2.6456E+00
 
 
     Using a distance-based cell
     Adding the potential well
        Amplitude [Ry a.u.] : -3.3063E-01
        Atom selected :           1
        Well size     :  2.6456E+00
 
     E field correction :    1.48783154639264       Ry
     #e's   in well     :    1.00000092397785       electrons

     Writing output data file si.save
 
     init_run     :      0.20s CPU      0.20s WALL (       1 calls)
     electrons    :      4.87s CPU      4.99s WALL (      25 calls)
     update_pot   :      0.44s CPU      0.45s WALL (      24 calls)

     Called by init_run:
     wfcinit      :      0.01s CPU      0.01s WALL (       1 calls)
     potinit      :      0.02s CPU      0.02s WALL (       1 calls)

     Called by electrons:
     c_bands      :      0.85s CPU      0.88s WALL (      85 calls)
     sum_band     :      1.39s CPU      1.40s WALL (      85 calls)
     v_of_rho     :      1.45s CPU      1.45s WALL (     107 calls)
     newd         :      1.36s CPU      1.37s WALL (     107 calls)
     mix_rho      :      0.13s CPU      0.14s WALL (      85 calls)

     Called by c_bands:
     init_us_2    :      0.03s CPU      0.04s WALL (     342 calls)
     regterg      :      0.75s CPU      0.79s WALL (     170 calls)

     Called by *egterg:
     h_psi        :      0.44s CPU      0.44s WALL (     519 calls)
     s_psi        :      0.02s CPU      0.01s WALL (     519 calls)
     g_psi        :      0.01s CPU      0.00s WALL (     347 calls)
     rdiaghg      :      0.21s CPU      0.24s WALL (     463 calls)

     Called by h_psi:
     add_vuspsi   :      0.01s CPU      0.01s WALL (     519 calls)

     General routines
     calbec       :      0.06s CPU      0.04s WALL (     689 calls)
     fft          :      0.94s CPU      1.03s WALL (    2545 calls)
     fftw         :      0.43s CPU      0.42s WALL (    2394 calls)
     davcio       :      0.00s CPU      0.00s WALL (       2 calls)
 
     Parallel routines
     fft_scatter  :      0.62s CPU      0.62s WALL (    4939 calls)
 
     PWSCF        :     5.96s CPU         6.14s WALL

 
   This run was terminated on:  15:32:15  12Jun2015            

=------------------------------------------------------------------------------=
   JOB DONE.
=------------------------------------------------------------------------------=
