
     Program PWSCF v.5.1.1 starts on 12Jun2015 at 15:32:15 

     This program is part of the open-source Quantum ESPRESSO suite
     for quantum simulation of materials; please cite
         "P. Giannozzi et al., J. Phys.:Condens. Matter 21 395502 (2009);
          URL http://www.quantum-espresso.org", 
     in publications or presentations arising from this work. More details at
     http://www.quantum-espresso.org/quote

     Parallel version (MPI & OpenMP), running on       8 processor cores
     Number of MPI processes:                 1
     Threads/MPI process:                     8
     Waiting for input...
     Reading input from standard input
Warning: card &IONS ignored
Warning: card / ignored

     Current dimensions of program PWSCF are:
     Max number of different atomic species (ntypx) = 10
     Max number of k-points (npk) =  40000
     Max angular momentum in pseudopotentials (lmaxx) =  3
     Presently no symmetry can be used with electric field

               file H.pbe-rrkjus.UPF: wavefunction(s)  1S renormalized

     gamma-point specific algorithms are used

     Subspace diagonalization in iterative solution of the eigenvalue problem:
     a serial algorithm will be used

 
     G-vector sticks info
     --------------------
     sticks:   dense  smooth     PW     G-vecs:    dense   smooth      PW
     Sum         997     997    241                23847    23847    2945
     Tot         499     499    121
 


     bravais-lattice index     =            1
     lattice parameter (alat)  =      13.2281  a.u.
     unit-cell volume          =    2314.6788 (a.u.)^3
     number of atoms/cell      =            5
     number of atomic types    =            2
     number of electrons       =         8.00
     number of Kohn-Sham states=            4
     kinetic-energy cutoff     =      18.0000  Ry
     charge density cutoff     =      72.0000  Ry
     convergence threshold     =      1.0E-10
     mixing beta               =       0.3000
     number of iterations used =            8  plain     mixing
     Exchange-correlation      =  SLA  PW   PBE  PBE ( 1  4  3  4 0 0)

     celldm(1)=  13.228083  celldm(2)=   0.000000  celldm(3)=   0.000000
     celldm(4)=   0.000000  celldm(5)=   0.000000  celldm(6)=   0.000000

     crystal axes: (cart. coord. in units of alat)
               a(1) = (   1.000000   0.000000   0.000000 )  
               a(2) = (   0.000000   1.000000   0.000000 )  
               a(3) = (   0.000000   0.000000   1.000000 )  

     reciprocal axes: (cart. coord. in units 2 pi/alat)
               b(1) = (  1.000000  0.000000  0.000000 )  
               b(2) = (  0.000000  1.000000  0.000000 )  
               b(3) = (  0.000000  0.000000  1.000000 )  


     PseudoPot. # 1 for Si read from file:
     ../pseudo/Si.pbe-n-van.UPF
     MD5 check sum: 8a97496598b7338af554a5de8957bfee
     Pseudo is Ultrasoft + core correction, Zval =  4.0
     Generated by new atomic code, or converted to UPF format
     Using radial grid of  899 points,  6 beta functions with: 
                l(1) =   0
                l(2) =   0
                l(3) =   1
                l(4) =   1
                l(5) =   2
                l(6) =   2
     Q(r) pseudized with  8 coefficients,  rinner =    0.900   0.900   0.900
                                                       0.900   0.900

     PseudoPot. # 2 for H  read from file:
     ../pseudo/H.pbe-rrkjus.UPF
     MD5 check sum: 7cc9d459525c9a0585f487a71c3c9563
     Pseudo is Ultrasoft, Zval =  1.0
     Generated by new atomic code, or converted to UPF format
     Using radial grid of 1061 points,  2 beta functions with: 
                l(1) =   0
                l(2) =   0
     Q(r) pseudized with 0 coefficients 


     atomic species   valence    mass     pseudopotential
        Si             4.00    28.08550     Si( 1.00)
        H              1.00     1.00794     H ( 1.00)

     No symmetry found



   Cartesian axes

     site n.     atom                  positions (alat units)
         1           Si  tau(   1) = (  -0.0277829   0.3482714   0.0000000  )
         2           H   tau(   2) = (   0.1822929   0.3482714   0.0000000  )
         3           H   tau(   3) = (  -0.0978086   0.4498400   0.1700357  )
         4           H   tau(   4) = (  -0.0978086   0.1502329   0.0029429  )
         5           H   tau(   5) = (  -0.0978086   0.4447414  -0.1729786  )

     number of k points=     1
                       cart. coord. in units 2pi/alat
        k(    1) = (   0.0000000   0.0000000   0.0000000), wk =   2.0000000

     Dense  grid:    11924 G-vectors     FFT dimensions: (  36,  36,  36)

     Largest allocated arrays     est. size (Mb)     dimensions
        Kohn-Sham Wavefunctions         0.09 Mb     (    1473,    4)
        NL pseudopotentials             0.58 Mb     (    1473,   26)
        Each V/rho on FFT grid          0.71 Mb     (   46656)
        Each G-vector array             0.09 Mb     (   11924)
        G-vector shells                 0.00 Mb     (     268)
     Largest temporary arrays     est. size (Mb)     dimensions
        Auxiliary wavefunctions         0.18 Mb     (    1473,   16)
        Each subspace H/S matrix        0.00 Mb     (      16,   16)
        Each <psi_i|beta_j> matrix      0.00 Mb     (      26,    4)
        Arrays for rho mixing           5.70 Mb     (   46656,    8)
 
     Using a distance-based cell
     Adding the potential well
        Amplitude [Ry a.u.] : -1.0000E+00
        Atom selected :           1
        Well size     :  2.6456E+00
 

     Check: negative/imaginary core charge=   -0.000002    0.000000

     Initial potential from superposition of free atoms

     starting charge    7.61451, renormalised to    8.00000

     negative rho (up, down):  1.309E-06 0.000E+00
     Starting wfc are    8 randomized atomic wfcs

     total cpu time spent up to now is        0.5 secs

     per-process dynamical memory:    19.5 Mb

     Self-consistent Calculation

     iteration #  1     ecut=    18.00 Ry     beta=0.30
     Davidson diagonalization with overlap
     ethr =  1.00E-02,  avg # of iterations =  3.0

     negative rho (up, down):  1.447E-04 0.000E+00

     total cpu time spent up to now is        0.7 secs

     The total energy is the sum of the following terms:

     one-electron contribution =     -25.51052534 Ry
     hartree contribution      =       7.90720510 Ry
     xc contribution           =      -6.42726872 Ry
     ewald contribution        =       0.88693575 Ry

     total energy              =     -19.32556995 Ry
     Harris-Foulkes estimate   =     -20.19047967 Ry
     estimated scf accuracy    <       2.23822448 Ry

     iteration #  2     ecut=    18.00 Ry     beta=0.30
     Davidson diagonalization with overlap
     ethr =  1.00E-02,  avg # of iterations =  1.0

     negative rho (up, down):  1.666E-02 0.000E+00

     total cpu time spent up to now is        0.8 secs

     The total energy is the sum of the following terms:

     one-electron contribution =     -25.06814470 Ry
     hartree contribution      =      11.49162294 Ry
     xc contribution           =      -7.41532099 Ry
     ewald contribution        =       0.88693575 Ry

     total energy              =     -18.82280838 Ry
     Harris-Foulkes estimate   =     -19.38820458 Ry
     estimated scf accuracy    <       0.79052247 Ry

     iteration #  3     ecut=    18.00 Ry     beta=0.30
     Davidson diagonalization with overlap
     ethr =  9.88E-03,  avg # of iterations =  2.0

     negative rho (up, down):  3.377E-02 0.000E+00

     total cpu time spent up to now is        0.9 secs

     The total energy is the sum of the following terms:

     one-electron contribution =     -24.09827420 Ry
     hartree contribution      =      11.41963143 Ry
     xc contribution           =      -7.45570360 Ry
     ewald contribution        =       0.88693575 Ry

     total energy              =     -18.91415924 Ry
     Harris-Foulkes estimate   =     -18.94954156 Ry
     estimated scf accuracy    <       0.07527178 Ry

     iteration #  4     ecut=    18.00 Ry     beta=0.30
     Davidson diagonalization with overlap
     ethr =  9.41E-04,  avg # of iterations =  2.0

     negative rho (up, down):  6.956E-02 0.000E+00

     total cpu time spent up to now is        1.0 secs

     The total energy is the sum of the following terms:

     one-electron contribution =     -24.44361569 Ry
     hartree contribution      =      12.01153547 Ry
     xc contribution           =      -7.61223177 Ry
     ewald contribution        =       0.88693575 Ry

     total energy              =     -18.91732626 Ry
     Harris-Foulkes estimate   =     -18.93231157 Ry
     estimated scf accuracy    <       0.02443141 Ry

     iteration #  5     ecut=    18.00 Ry     beta=0.30
     Davidson diagonalization with overlap
     ethr =  3.05E-04,  avg # of iterations =  2.0

     negative rho (up, down):  7.379E-02 0.000E+00

     total cpu time spent up to now is        1.1 secs

     The total energy is the sum of the following terms:

     one-electron contribution =     -24.25751507 Ry
     hartree contribution      =      12.09164340 Ry
     xc contribution           =      -7.64676723 Ry
     ewald contribution        =       0.88693575 Ry

     total energy              =     -18.92209668 Ry
     Harris-Foulkes estimate   =     -18.92112020 Ry
     estimated scf accuracy    <       0.00157518 Ry

     iteration #  6     ecut=    18.00 Ry     beta=0.30
     Davidson diagonalization with overlap
     ethr =  1.97E-05,  avg # of iterations =  1.0

     negative rho (up, down):  7.739E-02 0.000E+00

     total cpu time spent up to now is        1.2 secs

     The total energy is the sum of the following terms:

     one-electron contribution =     -24.25309454 Ry
     hartree contribution      =      12.01821105 Ry
     xc contribution           =      -7.59141807 Ry
     ewald contribution        =       0.88693575 Ry

     total energy              =     -18.92021454 Ry
     Harris-Foulkes estimate   =     -18.92214551 Ry
     estimated scf accuracy    <       0.00407054 Ry

     iteration #  7     ecut=    18.00 Ry     beta=0.30
     Davidson diagonalization with overlap
     ethr =  1.97E-05,  avg # of iterations =  2.0

     negative rho (up, down):  7.730E-02 0.000E+00

     total cpu time spent up to now is        1.3 secs

     The total energy is the sum of the following terms:

     one-electron contribution =     -24.22289666 Ry
     hartree contribution      =      12.01688727 Ry
     xc contribution           =      -7.59125766 Ry
     ewald contribution        =       0.88693575 Ry

     total energy              =     -18.92069402 Ry
     Harris-Foulkes estimate   =     -18.92069817 Ry
     estimated scf accuracy    <       0.00007091 Ry

     iteration #  8     ecut=    18.00 Ry     beta=0.30
     Davidson diagonalization with overlap
     ethr =  8.86E-07,  avg # of iterations =  2.0

     negative rho (up, down):  7.740E-02 0.000E+00

     total cpu time spent up to now is        1.4 secs

     The total energy is the sum of the following terms:

     one-electron contribution =     -24.22512924 Ry
     hartree contribution      =      12.01987394 Ry
     xc contribution           =      -7.59309358 Ry
     ewald contribution        =       0.88693575 Ry

     total energy              =     -18.92069061 Ry
     Harris-Foulkes estimate   =     -18.92070110 Ry
     estimated scf accuracy    <       0.00005796 Ry

     iteration #  9     ecut=    18.00 Ry     beta=0.30
     Davidson diagonalization with overlap
     ethr =  7.24E-07,  avg # of iterations =  1.0

     negative rho (up, down):  7.729E-02 0.000E+00

     total cpu time spent up to now is        1.5 secs

     The total energy is the sum of the following terms:

     one-electron contribution =     -24.22547791 Ry
     hartree contribution      =      12.02252431 Ry
     xc contribution           =      -7.59398554 Ry
     ewald contribution        =       0.88693575 Ry

     total energy              =     -18.92069211 Ry
     Harris-Foulkes estimate   =     -18.92069100 Ry
     estimated scf accuracy    <       0.00003468 Ry

     iteration # 10     ecut=    18.00 Ry     beta=0.30
     Davidson diagonalization with overlap
     ethr =  4.33E-07,  avg # of iterations =  1.0

     negative rho (up, down):  7.675E-02 0.000E+00

     total cpu time spent up to now is        1.6 secs

     The total energy is the sum of the following terms:

     one-electron contribution =     -24.22492755 Ry
     hartree contribution      =      12.02372060 Ry
     xc contribution           =      -7.59552333 Ry
     ewald contribution        =       0.88693575 Ry

     total energy              =     -18.92068410 Ry
     Harris-Foulkes estimate   =     -18.92069226 Ry
     estimated scf accuracy    <       0.00003126 Ry

     iteration # 11     ecut=    18.00 Ry     beta=0.30
     Davidson diagonalization with overlap
     ethr =  3.91E-07,  avg # of iterations =  1.0

     negative rho (up, down):  7.670E-02 0.000E+00

     total cpu time spent up to now is        1.7 secs

     The total energy is the sum of the following terms:

     one-electron contribution =     -24.22635504 Ry
     hartree contribution      =      12.02413847 Ry
     xc contribution           =      -7.59563785 Ry
     ewald contribution        =       0.88693575 Ry

     total energy              =     -18.92068609 Ry
     Harris-Foulkes estimate   =     -18.92068582 Ry
     estimated scf accuracy    <       0.00001296 Ry

     iteration # 12     ecut=    18.00 Ry     beta=0.30
     Davidson diagonalization with overlap
     ethr =  1.62E-07,  avg # of iterations =  1.0

     negative rho (up, down):  7.669E-02 0.000E+00

     total cpu time spent up to now is        1.8 secs

     The total energy is the sum of the following terms:

     one-electron contribution =     -24.22662679 Ry
     hartree contribution      =      12.02407442 Ry
     xc contribution           =      -7.59572121 Ry
     ewald contribution        =       0.88693575 Ry

     total energy              =     -18.92068604 Ry
     Harris-Foulkes estimate   =     -18.92068626 Ry
     estimated scf accuracy    <       0.00001427 Ry

     iteration # 13     ecut=    18.00 Ry     beta=0.30
     Davidson diagonalization with overlap
     ethr =  1.62E-07,  avg # of iterations =  1.0

     negative rho (up, down):  7.670E-02 0.000E+00

     total cpu time spent up to now is        1.9 secs

     The total energy is the sum of the following terms:

     one-electron contribution =     -24.22686069 Ry
     hartree contribution      =      12.02245816 Ry
     xc contribution           =      -7.59520692 Ry
     ewald contribution        =       0.88693575 Ry

     total energy              =     -18.92068533 Ry
     Harris-Foulkes estimate   =     -18.92068611 Ry
     estimated scf accuracy    <       0.00001320 Ry

     iteration # 14     ecut=    18.00 Ry     beta=0.30
     Davidson diagonalization with overlap
     ethr =  1.62E-07,  avg # of iterations =  1.0

     negative rho (up, down):  7.681E-02 0.000E+00

     total cpu time spent up to now is        2.0 secs

     The total energy is the sum of the following terms:

     one-electron contribution =     -24.22735006 Ry
     hartree contribution      =      12.01545226 Ry
     xc contribution           =      -7.59401211 Ry
     ewald contribution        =       0.88693575 Ry

     total energy              =     -18.92068242 Ry
     Harris-Foulkes estimate   =     -18.92068538 Ry
     estimated scf accuracy    <       0.00000999 Ry

     iteration # 15     ecut=    18.00 Ry     beta=0.30
     Davidson diagonalization with overlap
     ethr =  1.25E-07,  avg # of iterations =  2.0

     negative rho (up, down):  7.684E-02 0.000E+00

     total cpu time spent up to now is        2.1 secs

     The total energy is the sum of the following terms:

     one-electron contribution =     -24.23201643 Ry
     hartree contribution      =      12.01556178 Ry
     xc contribution           =      -7.59398630 Ry
     ewald contribution        =       0.88693575 Ry

     total energy              =     -18.92068468 Ry
     Harris-Foulkes estimate   =     -18.92068494 Ry
     estimated scf accuracy    <       0.00000504 Ry

     iteration # 16     ecut=    18.00 Ry     beta=0.30
     Davidson diagonalization with overlap
     ethr =  6.29E-08,  avg # of iterations =  1.0

     negative rho (up, down):  7.701E-02 0.000E+00

     total cpu time spent up to now is        2.2 secs

     The total energy is the sum of the following terms:

     one-electron contribution =     -24.23187146 Ry
     hartree contribution      =      12.01311565 Ry
     xc contribution           =      -7.59319013 Ry
     ewald contribution        =       0.88693575 Ry

     total energy              =     -18.92068507 Ry
     Harris-Foulkes estimate   =     -18.92068470 Ry
     estimated scf accuracy    <       0.00000467 Ry

     iteration # 17     ecut=    18.00 Ry     beta=0.30
     Davidson diagonalization with overlap
     ethr =  5.84E-08,  avg # of iterations =  1.0

     negative rho (up, down):  7.706E-02 0.000E+00

     total cpu time spent up to now is        2.4 secs

     The total energy is the sum of the following terms:

     one-electron contribution =     -24.23259932 Ry
     hartree contribution      =      12.01535761 Ry
     xc contribution           =      -7.59333503 Ry
     ewald contribution        =       0.88693575 Ry

     total energy              =     -18.92068371 Ry
     Harris-Foulkes estimate   =     -18.92068515 Ry
     estimated scf accuracy    <       0.00000390 Ry

     iteration # 18     ecut=    18.00 Ry     beta=0.30
     Davidson diagonalization with overlap
     ethr =  4.87E-08,  avg # of iterations =  1.0

     negative rho (up, down):  7.708E-02 0.000E+00

     total cpu time spent up to now is        2.5 secs

     The total energy is the sum of the following terms:

     one-electron contribution =     -24.23107446 Ry
     hartree contribution      =      12.01561713 Ry
     xc contribution           =      -7.59331824 Ry
     ewald contribution        =       0.88693575 Ry

     total energy              =     -18.92068386 Ry
     Harris-Foulkes estimate   =     -18.92068404 Ry
     estimated scf accuracy    <       0.00000020 Ry

     iteration # 19     ecut=    18.00 Ry     beta=0.30
     Davidson diagonalization with overlap
     ethr =  2.51E-09,  avg # of iterations =  2.0

     negative rho (up, down):  7.707E-02 0.000E+00

     total cpu time spent up to now is        2.6 secs

     The total energy is the sum of the following terms:

     one-electron contribution =     -24.23070361 Ry
     hartree contribution      =      12.01596084 Ry
     xc contribution           =      -7.59351015 Ry
     ewald contribution        =       0.88693575 Ry

     total energy              =     -18.92068390 Ry
     Harris-Foulkes estimate   =     -18.92068393 Ry
     estimated scf accuracy    <       0.00000013 Ry

     iteration # 20     ecut=    18.00 Ry     beta=0.30
     Davidson diagonalization with overlap
     ethr =  1.57E-09,  avg # of iterations =  1.0

     negative rho (up, down):  7.702E-02 0.000E+00

     total cpu time spent up to now is        2.7 secs

     The total energy is the sum of the following terms:

     one-electron contribution =     -24.23070704 Ry
     hartree contribution      =      12.01650693 Ry
     xc contribution           =      -7.59362890 Ry
     ewald contribution        =       0.88693575 Ry

     total energy              =     -18.92068400 Ry
     Harris-Foulkes estimate   =     -18.92068390 Ry
     estimated scf accuracy    <       0.00000006 Ry

     iteration # 21     ecut=    18.00 Ry     beta=0.30
     Davidson diagonalization with overlap
     ethr =  7.45E-10,  avg # of iterations =  1.0

     negative rho (up, down):  7.705E-02 0.000E+00

     total cpu time spent up to now is        2.8 secs

     The total energy is the sum of the following terms:

     one-electron contribution =     -24.23055737 Ry
     hartree contribution      =      12.01673523 Ry
     xc contribution           =      -7.59376163 Ry
     ewald contribution        =       0.88693575 Ry

     total energy              =     -18.92068402 Ry
     Harris-Foulkes estimate   =     -18.92068401 Ry
     estimated scf accuracy    <       0.00000001 Ry

     iteration # 22     ecut=    18.00 Ry     beta=0.30
     Davidson diagonalization with overlap
     ethr =  1.46E-10,  avg # of iterations =  2.0

     negative rho (up, down):  7.704E-02 0.000E+00

     total cpu time spent up to now is        2.9 secs

     The total energy is the sum of the following terms:

     one-electron contribution =     -24.23059956 Ry
     hartree contribution      =      12.01665458 Ry
     xc contribution           =      -7.59371318 Ry
     ewald contribution        =       0.88693575 Ry

     total energy              =     -18.92068402 Ry
     Harris-Foulkes estimate   =     -18.92068402 Ry
     estimated scf accuracy    <       0.00000001 Ry

     iteration # 23     ecut=    18.00 Ry     beta=0.30
     Davidson diagonalization with overlap
     ethr =  1.30E-10,  avg # of iterations =  1.0

     negative rho (up, down):  7.705E-02 0.000E+00

     total cpu time spent up to now is        3.0 secs

     The total energy is the sum of the following terms:

     one-electron contribution =     -24.23059649 Ry
     hartree contribution      =      12.01658049 Ry
     xc contribution           =      -7.59364198 Ry
     ewald contribution        =       0.88693575 Ry

     total energy              =     -18.92068401 Ry
     Harris-Foulkes estimate   =     -18.92068402 Ry
     estimated scf accuracy    <          1.6E-09 Ry

     iteration # 24     ecut=    18.00 Ry     beta=0.30
     Davidson diagonalization with overlap
     ethr =  1.94E-11,  avg # of iterations =  3.0

     negative rho (up, down):  7.706E-02 0.000E+00

     total cpu time spent up to now is        3.1 secs

     The total energy is the sum of the following terms:

     one-electron contribution =     -24.23053943 Ry
     hartree contribution      =      12.01663152 Ry
     xc contribution           =      -7.59368364 Ry
     ewald contribution        =       0.88693575 Ry

     total energy              =     -18.92068402 Ry
     Harris-Foulkes estimate   =     -18.92068401 Ry
     estimated scf accuracy    <          7.2E-09 Ry

     iteration # 25     ecut=    18.00 Ry     beta=0.30
     Davidson diagonalization with overlap
     ethr =  1.94E-11,  avg # of iterations =  2.0

     negative rho (up, down):  7.706E-02 0.000E+00

     total cpu time spent up to now is        3.2 secs

     End of self-consistent calculation

          k = 0.0000 0.0000 0.0000 (  1473 PWs)   bands (ev):

   -17.8145 -11.6344 -11.5444 -11.5398

     highest occupied level (ev):   -11.5398

     The total energy is the sum of the following terms:

     one-electron contribution =     -24.23058634 Ry
     hartree contribution      =      12.01666130 Ry
     xc contribution           =      -7.59369473 Ry
     ewald contribution        =       0.88693575 Ry

!    total energy              =     -18.92068402 Ry
     Harris-Foulkes estimate   =     -18.92068402 Ry
     estimated scf accuracy    <          4.7E-11 Ry

     The total energy is the sum of the following terms:

     one-electron contribution =     -24.23058634 Ry
     hartree contribution      =      12.01666130 Ry
     xc contribution           =      -7.59369473 Ry
     ewald contribution        =       0.88693575 Ry
     electric field correction =       0.00000000 Ry

     convergence has been achieved in  25 iterations
 
     Using a distance-based cell
     Adding the potential well
        Amplitude [Ry a.u.] : -1.0000E+00
        Atom selected :           1
        Well size     :  2.6456E+00
 
 
     Using a distance-based cell
     Adding the potential well
        Amplitude [Ry a.u.] : -1.0000E+00
        Atom selected :           1
        Well size     :  2.6456E+00
 
     E field correction :    5.25720776421802       Ry
     #e's   in well     :    2.51441552843604       electrons
     Surplus/deficit electrons    :    -1.51441552843604      electrons
     epcdft_thr                   :    1.000000000000000E-006 electrons
 
     -----------------------------------------------
 
                      SCF converged but...
 
     electron localization condition NOT satisfied
     restarting scf with different applied potential
 
     New field Amp      :  -0.999000000000000       Ry
     charge density from previous step

     Check: negative/imaginary core charge=   -0.000002    0.000000

     negative rho (up, down):  7.706E-02 0.000E+00
 
     Using a distance-based cell
     Adding the potential well
        Amplitude [Ry a.u.] : -9.9900E-01
        Atom selected :           1
        Well size     :  2.6456E+00
 

     total cpu time spent up to now is        3.3 secs

     per-process dynamical memory:    19.9 Mb

     Self-consistent Calculation

     iteration #  1     ecut=    18.00 Ry     beta=0.30
     Davidson diagonalization with overlap
     ethr =  1.94E-11,  avg # of iterations =  6.0

     negative rho (up, down):  7.703E-02 0.000E+00

     total cpu time spent up to now is        3.4 secs

     The total energy is the sum of the following terms:

     one-electron contribution =     -24.22242779 Ry
     hartree contribution      =      12.01555884 Ry
     xc contribution           =      -7.59346297 Ry
     ewald contribution        =       0.88693575 Ry

     total energy              =     -18.91542746 Ry
     Harris-Foulkes estimate   =     -18.91542767 Ry
     estimated scf accuracy    <       0.00000084 Ry

     iteration #  2     ecut=    18.00 Ry     beta=0.30
     Davidson diagonalization with overlap
     ethr =  1.05E-08,  avg # of iterations =  1.0

     negative rho (up, down):  7.701E-02 0.000E+00

     total cpu time spent up to now is        3.6 secs

     The total energy is the sum of the following terms:

     one-electron contribution =     -24.22305180 Ry
     hartree contribution      =      12.01452975 Ry
     xc contribution           =      -7.59325091 Ry
     ewald contribution        =       0.88693575 Ry

     total energy              =     -18.91542747 Ry
     Harris-Foulkes estimate   =     -18.91542750 Ry
     estimated scf accuracy    <       0.00000020 Ry

     iteration #  3     ecut=    18.00 Ry     beta=0.30
     Davidson diagonalization with overlap
     ethr =  2.48E-09,  avg # of iterations =  2.0

     negative rho (up, down):  7.701E-02 0.000E+00

     total cpu time spent up to now is        3.7 secs

     The total energy is the sum of the following terms:

     one-electron contribution =     -24.22361536 Ry
     hartree contribution      =      12.01453277 Ry
     xc contribution           =      -7.59324784 Ry
     ewald contribution        =       0.88693575 Ry

     total energy              =     -18.91542751 Ry
     Harris-Foulkes estimate   =     -18.91542752 Ry
     estimated scf accuracy    <          5.9E-09 Ry

     iteration #  4     ecut=    18.00 Ry     beta=0.30
     Davidson diagonalization with overlap
     ethr =  7.31E-11,  avg # of iterations =  1.0

     negative rho (up, down):  7.702E-02 0.000E+00

     total cpu time spent up to now is        3.8 secs

     The total energy is the sum of the following terms:

     one-electron contribution =     -24.22361165 Ry
     hartree contribution      =      12.01448348 Ry
     xc contribution           =      -7.59321443 Ry
     ewald contribution        =       0.88693575 Ry

     total energy              =     -18.91542749 Ry
     Harris-Foulkes estimate   =     -18.91542751 Ry
     estimated scf accuracy    <          4.4E-09 Ry

     iteration #  5     ecut=    18.00 Ry     beta=0.30
     Davidson diagonalization with overlap
     ethr =  5.52E-11,  avg # of iterations =  2.0

     negative rho (up, down):  7.702E-02 0.000E+00

     total cpu time spent up to now is        3.9 secs

     The total energy is the sum of the following terms:

     one-electron contribution =     -24.22357547 Ry
     hartree contribution      =      12.01442276 Ry
     xc contribution           =      -7.59319194 Ry
     ewald contribution        =       0.88693575 Ry

     total energy              =     -18.91542749 Ry
     Harris-Foulkes estimate   =     -18.91542749 Ry
     estimated scf accuracy    <          3.2E-10 Ry

     iteration #  6     ecut=    18.00 Ry     beta=0.30
     Davidson diagonalization with overlap
     ethr =  4.02E-12,  avg # of iterations =  3.0

     negative rho (up, down):  7.702E-02 0.000E+00

     total cpu time spent up to now is        4.0 secs

     End of self-consistent calculation

          k = 0.0000 0.0000 0.0000 (  1473 PWs)   bands (ev):

   -17.8083 -11.6292 -11.5393 -11.5347

     highest occupied level (ev):   -11.5347

     The total energy is the sum of the following terms:

     one-electron contribution =     -24.22358085 Ry
     hartree contribution      =      12.01440810 Ry
     xc contribution           =      -7.59319049 Ry
     ewald contribution        =       0.88693575 Ry

!    total energy              =     -18.91542749 Ry
     Harris-Foulkes estimate   =     -18.91542749 Ry
     estimated scf accuracy    <          7.4E-11 Ry

     The total energy is the sum of the following terms:

     one-electron contribution =     -24.22358085 Ry
     hartree contribution      =      12.01440810 Ry
     xc contribution           =      -7.59319049 Ry
     ewald contribution        =       0.88693575 Ry
     electric field correction =       0.00000000 Ry

     convergence has been achieved in   6 iterations
 
     Using a distance-based cell
     Adding the potential well
        Amplitude [Ry a.u.] : -9.9900E-01
        Atom selected :           1
        Well size     :  2.6456E+00
 
 
     Using a distance-based cell
     Adding the potential well
        Amplitude [Ry a.u.] : -9.9900E-01
        Atom selected :           1
        Well size     :  2.6456E+00
 
     E field correction :    5.25090063305965       Ry
     #e's   in well     :    2.51231357969900       electrons
     Surplus/deficit electrons    :    -1.51231357969900      electrons
     epcdft_thr                   :    1.000000000000000E-006 electrons
 
     -----------------------------------------------
 
                      SCF converged but...
 
     electron localization condition NOT satisfied
     restarting scf with different applied potential
 
     New field Amp      :  -0.279518333747880       Ry
     charge density from previous step

     Check: negative/imaginary core charge=   -0.000002    0.000000

     negative rho (up, down):  7.702E-02 0.000E+00
 
     Using a distance-based cell
     Adding the potential well
        Amplitude [Ry a.u.] : -2.7952E-01
        Atom selected :           1
        Well size     :  2.6456E+00
 

     total cpu time spent up to now is        4.1 secs

     per-process dynamical memory:    22.8 Mb

     Self-consistent Calculation

     iteration #  1     ecut=    18.00 Ry     beta=0.30
     Davidson diagonalization with overlap
     ethr =  4.02E-12,  avg # of iterations = 12.0

     negative rho (up, down):  5.646E-02 0.000E+00

     total cpu time spent up to now is        4.2 secs

     The total energy is the sum of the following terms:

     one-electron contribution =     -18.29340761 Ry
     hartree contribution      =      11.04001058 Ry
     xc contribution           =      -7.37737557 Ry
     ewald contribution        =       0.88693575 Ry

     total energy              =     -15.42838070 Ry
     Harris-Foulkes estimate   =     -15.63532429 Ry
     estimated scf accuracy    <       0.56583939 Ry

     iteration #  2     ecut=    18.00 Ry     beta=0.30
     Davidson diagonalization with overlap
     ethr =  7.07E-03,  avg # of iterations =  1.0

     negative rho (up, down):  4.515E-02 0.000E+00

     total cpu time spent up to now is        4.4 secs

     The total energy is the sum of the following terms:

     one-electron contribution =     -18.97605921 Ry
     hartree contribution      =      10.36433852 Ry
     xc contribution           =      -7.23832549 Ry
     ewald contribution        =       0.88693575 Ry

     total energy              =     -15.39633502 Ry
     Harris-Foulkes estimate   =     -15.45960029 Ry
     estimated scf accuracy    <       0.11378653 Ry

     iteration #  3     ecut=    18.00 Ry     beta=0.30
     Davidson diagonalization with overlap
     ethr =  1.42E-03,  avg # of iterations =  2.0

     negative rho (up, down):  4.598E-02 0.000E+00

     total cpu time spent up to now is        4.5 secs

     The total energy is the sum of the following terms:

     one-electron contribution =     -19.44830807 Ry
     hartree contribution      =      10.37031807 Ry
     xc contribution           =      -7.23621836 Ry
     ewald contribution        =       0.88693575 Ry

     total energy              =     -15.42101940 Ry
     Harris-Foulkes estimate   =     -15.42117395 Ry
     estimated scf accuracy    <       0.00109318 Ry

     iteration #  4     ecut=    18.00 Ry     beta=0.30
     Davidson diagonalization with overlap
     ethr =  1.37E-05,  avg # of iterations =  1.0

     negative rho (up, down):  4.893E-02 0.000E+00

     total cpu time spent up to now is        4.6 secs

     The total energy is the sum of the following terms:

     one-electron contribution =     -19.44009521 Ry
     hartree contribution      =      10.34697181 Ry
     xc contribution           =      -7.21658662 Ry
     ewald contribution        =       0.88693575 Ry

     total energy              =     -15.42095309 Ry
     Harris-Foulkes estimate   =     -15.42109536 Ry
     estimated scf accuracy    <       0.00063819 Ry

     iteration #  5     ecut=    18.00 Ry     beta=0.30
     Davidson diagonalization with overlap
     ethr =  7.98E-06,  avg # of iterations =  2.0

     negative rho (up, down):  4.902E-02 0.000E+00

     total cpu time spent up to now is        4.7 secs

     The total energy is the sum of the following terms:

     one-electron contribution =     -19.42090681 Ry
     hartree contribution      =      10.33278117 Ry
     xc contribution           =      -7.21349424 Ry
     ewald contribution        =       0.88693575 Ry

     total energy              =     -15.42105422 Ry
     Harris-Foulkes estimate   =     -15.42108946 Ry
     estimated scf accuracy    <       0.00009496 Ry

     iteration #  6     ecut=    18.00 Ry     beta=0.30
     Davidson diagonalization with overlap
     ethr =  1.19E-06,  avg # of iterations =  2.0

     negative rho (up, down):  4.909E-02 0.000E+00

     total cpu time spent up to now is        4.8 secs

     The total energy is the sum of the following terms:

     one-electron contribution =     -19.43055360 Ry
     hartree contribution      =      10.33797577 Ry
     xc contribution           =      -7.21576677 Ry
     ewald contribution        =       0.88693575 Ry

     total energy              =     -15.42106215 Ry
     Harris-Foulkes estimate   =     -15.42106610 Ry
     estimated scf accuracy    <       0.00001576 Ry

     iteration #  7     ecut=    18.00 Ry     beta=0.30
     Davidson diagonalization with overlap
     ethr =  1.97E-07,  avg # of iterations =  1.0

     negative rho (up, down):  4.911E-02 0.000E+00

     total cpu time spent up to now is        4.9 secs

     The total energy is the sum of the following terms:

     one-electron contribution =     -19.42956435 Ry
     hartree contribution      =      10.33879172 Ry
     xc contribution           =      -7.21656984 Ry
     ewald contribution        =       0.88693575 Ry

     total energy              =     -15.42106109 Ry
     Harris-Foulkes estimate   =     -15.42106268 Ry
     estimated scf accuracy    <       0.00000478 Ry

     iteration #  8     ecut=    18.00 Ry     beta=0.30
     Davidson diagonalization with overlap
     ethr =  5.97E-08,  avg # of iterations =  2.0

     negative rho (up, down):  4.911E-02 0.000E+00

     total cpu time spent up to now is        5.0 secs

     The total energy is the sum of the following terms:

     one-electron contribution =     -19.43090623 Ry
     hartree contribution      =      10.33944018 Ry
     xc contribution           =      -7.21677570 Ry
     ewald contribution        =       0.88693575 Ry

     total energy              =     -15.42106158 Ry
     Harris-Foulkes estimate   =     -15.42106162 Ry
     estimated scf accuracy    <       0.00000032 Ry

     iteration #  9     ecut=    18.00 Ry     beta=0.30
     Davidson diagonalization with overlap
     ethr =  4.06E-09,  avg # of iterations =  2.0

     negative rho (up, down):  4.911E-02 0.000E+00

     total cpu time spent up to now is        5.2 secs

     The total energy is the sum of the following terms:

     one-electron contribution =     -19.43060714 Ry
     hartree contribution      =      10.34002512 Ry
     xc contribution           =      -7.21713081 Ry
     ewald contribution        =       0.88693575 Ry

     total energy              =     -15.42106153 Ry
     Harris-Foulkes estimate   =     -15.42106162 Ry
     estimated scf accuracy    <       0.00000027 Ry

     iteration # 10     ecut=    18.00 Ry     beta=0.30
     Davidson diagonalization with overlap
     ethr =  3.35E-09,  avg # of iterations =  2.0

     negative rho (up, down):  4.911E-02 0.000E+00

     total cpu time spent up to now is        5.3 secs

     The total energy is the sum of the following terms:

     one-electron contribution =     -19.43072675 Ry
     hartree contribution      =      10.34005185 Ry
     xc contribution           =      -7.21716522 Ry
     ewald contribution        =       0.88693575 Ry

     total energy              =     -15.42106156 Ry
     Harris-Foulkes estimate   =     -15.42106156 Ry
     estimated scf accuracy    <          8.5E-09 Ry

     iteration # 11     ecut=    18.00 Ry     beta=0.30
     Davidson diagonalization with overlap
     ethr =  1.06E-10,  avg # of iterations =  3.0

     negative rho (up, down):  4.911E-02 0.000E+00

     total cpu time spent up to now is        5.4 secs

     The total energy is the sum of the following terms:

     one-electron contribution =     -19.43081157 Ry
     hartree contribution      =      10.33992539 Ry
     xc contribution           =      -7.21712326 Ry
     ewald contribution        =       0.88693575 Ry

     total energy              =     -15.42106156 Ry
     Harris-Foulkes estimate   =     -15.42106157 Ry
     estimated scf accuracy    <          2.2E-09 Ry

     iteration # 12     ecut=    18.00 Ry     beta=0.30
     Davidson diagonalization with overlap
     ethr =  2.71E-11,  avg # of iterations =  2.0

     negative rho (up, down):  4.911E-02 0.000E+00

     total cpu time spent up to now is        5.5 secs

     The total energy is the sum of the following terms:

     one-electron contribution =     -19.43086658 Ry
     hartree contribution      =      10.33993218 Ry
     xc contribution           =      -7.21711438 Ry
     ewald contribution        =       0.88693575 Ry

     total energy              =     -15.42106155 Ry
     Harris-Foulkes estimate   =     -15.42106156 Ry
     estimated scf accuracy    <          1.6E-09 Ry

     iteration # 13     ecut=    18.00 Ry     beta=0.30
     Davidson diagonalization with overlap
     ethr =  2.01E-11,  avg # of iterations =  1.0

     negative rho (up, down):  4.911E-02 0.000E+00

     total cpu time spent up to now is        5.6 secs

     The total energy is the sum of the following terms:

     one-electron contribution =     -19.43084605 Ry
     hartree contribution      =      10.33994986 Ry
     xc contribution           =      -7.21711725 Ry
     ewald contribution        =       0.88693575 Ry

     total energy              =     -15.42106155 Ry
     Harris-Foulkes estimate   =     -15.42106155 Ry
     estimated scf accuracy    <          2.7E-10 Ry

     iteration # 14     ecut=    18.00 Ry     beta=0.30
     Davidson diagonalization with overlap
     ethr =  3.39E-12,  avg # of iterations =  2.0

     negative rho (up, down):  4.911E-02 0.000E+00

     total cpu time spent up to now is        5.7 secs

     End of self-consistent calculation

          k = 0.0000 0.0000 0.0000 (  1473 PWs)   bands (ev):

   -13.9133  -8.5475  -8.5238  -8.5189

     highest occupied level (ev):    -8.5189

     The total energy is the sum of the following terms:

     one-electron contribution =     -19.43082869 Ry
     hartree contribution      =      10.33994793 Ry
     xc contribution           =      -7.21711654 Ry
     ewald contribution        =       0.88693575 Ry

!    total energy              =     -15.42106155 Ry
     Harris-Foulkes estimate   =     -15.42106155 Ry
     estimated scf accuracy    <          1.1E-11 Ry

     The total energy is the sum of the following terms:

     one-electron contribution =     -19.43082869 Ry
     hartree contribution      =      10.33994793 Ry
     xc contribution           =      -7.21711654 Ry
     ewald contribution        =       0.88693575 Ry
     electric field correction =       0.00000000 Ry

     convergence has been achieved in  14 iterations
 
     Using a distance-based cell
     Adding the potential well
        Amplitude [Ry a.u.] : -2.7952E-01
        Atom selected :           1
        Well size     :  2.6456E+00
 
 
     Using a distance-based cell
     Adding the potential well
        Amplitude [Ry a.u.] : -2.7952E-01
        Atom selected :           1
        Well size     :  2.6456E+00
 
     E field correction :    1.24025198777667       Ry
     #e's   in well     :   0.874208508235827       electrons
     Surplus/deficit electrons    :    0.125791491764173      electrons
     epcdft_thr                   :    1.000000000000000E-006 electrons
 
     -----------------------------------------------
 
                      SCF converged but...
 
     electron localization condition NOT satisfied
     restarting scf with different applied potential
 
     New field Amp      :  -0.307470173786905       Ry
     charge density from previous step

     Check: negative/imaginary core charge=   -0.000002    0.000000

     negative rho (up, down):  4.911E-02 0.000E+00
 
     Using a distance-based cell
     Adding the potential well
        Amplitude [Ry a.u.] : -3.0747E-01
        Atom selected :           1
        Well size     :  2.6456E+00
 

     total cpu time spent up to now is        5.8 secs

     per-process dynamical memory:    19.9 Mb

     Self-consistent Calculation

     iteration #  1     ecut=    18.00 Ry     beta=0.30
     Davidson diagonalization with overlap
     ethr =  3.39E-12,  avg # of iterations =  9.0

     negative rho (up, down):  4.974E-02 0.000E+00

     total cpu time spent up to now is        6.0 secs

     The total energy is the sum of the following terms:

     one-electron contribution =     -19.64646222 Ry
     hartree contribution      =      10.37467015 Ry
     xc contribution           =      -7.22454385 Ry
     ewald contribution        =       0.88693575 Ry

     total energy              =     -15.54557328 Ry
     Harris-Foulkes estimate   =     -15.54592288 Ry
     estimated scf accuracy    <       0.00094689 Ry

     iteration #  2     ecut=    18.00 Ry     beta=0.30
     Davidson diagonalization with overlap
     ethr =  1.18E-05,  avg # of iterations =  1.0

     negative rho (up, down):  5.024E-02 0.000E+00

     total cpu time spent up to now is        6.1 secs

     The total energy is the sum of the following terms:

     one-electron contribution =     -19.62388141 Ry
     hartree contribution      =      10.40315903 Ry
     xc contribution           =      -7.23049753 Ry
     ewald contribution        =       0.88693575 Ry

     total energy              =     -15.54551503 Ry
     Harris-Foulkes estimate   =     -15.54562487 Ry
     estimated scf accuracy    <       0.00019305 Ry

     iteration #  3     ecut=    18.00 Ry     beta=0.30
     Davidson diagonalization with overlap
     ethr =  2.41E-06,  avg # of iterations =  2.0

     negative rho (up, down):  5.022E-02 0.000E+00

     total cpu time spent up to now is        6.2 secs

     The total energy is the sum of the following terms:

     one-electron contribution =     -19.60602736 Ry
     hartree contribution      =      10.40317896 Ry
     xc contribution           =      -7.23059088 Ry
     ewald contribution        =       0.88693575 Ry

     total energy              =     -15.54555867 Ry
     Harris-Foulkes estimate   =     -15.54555892 Ry
     estimated scf accuracy    <       0.00000390 Ry

     iteration #  4     ecut=    18.00 Ry     beta=0.30
     Davidson diagonalization with overlap
     ethr =  4.87E-08,  avg # of iterations =  1.0

     negative rho (up, down):  5.013E-02 0.000E+00

     total cpu time spent up to now is        6.3 secs

     The total energy is the sum of the following terms:

     one-electron contribution =     -19.60616341 Ry
     hartree contribution      =      10.40554642 Ry
     xc contribution           =      -7.23197489 Ry
     ewald contribution        =       0.88693575 Ry

     total energy              =     -15.54555785 Ry
     Harris-Foulkes estimate   =     -15.54555876 Ry
     estimated scf accuracy    <       0.00000309 Ry

     iteration #  5     ecut=    18.00 Ry     beta=0.30
     Davidson diagonalization with overlap
     ethr =  3.87E-08,  avg # of iterations =  2.0

     negative rho (up, down):  5.013E-02 0.000E+00

     total cpu time spent up to now is        6.4 secs

     The total energy is the sum of the following terms:

     one-electron contribution =     -19.60709962 Ry
     hartree contribution      =      10.40630411 Ry
     xc contribution           =      -7.23216014 Ry
     ewald contribution        =       0.88693575 Ry

     total energy              =     -15.54555827 Ry
     Harris-Foulkes estimate   =     -15.54555836 Ry
     estimated scf accuracy    <       0.00000023 Ry

     iteration #  6     ecut=    18.00 Ry     beta=0.30
     Davidson diagonalization with overlap
     ethr =  2.93E-09,  avg # of iterations =  2.0

     negative rho (up, down):  5.012E-02 0.000E+00

     total cpu time spent up to now is        6.5 secs

     The total energy is the sum of the following terms:

     one-electron contribution =     -19.60668009 Ry
     hartree contribution      =      10.40617904 Ry
     xc contribution           =      -7.23209411 Ry
     ewald contribution        =       0.88693575 Ry

     total energy              =     -15.54555828 Ry
     Harris-Foulkes estimate   =     -15.54555829 Ry
     estimated scf accuracy    <       0.00000005 Ry

     iteration #  7     ecut=    18.00 Ry     beta=0.30
     Davidson diagonalization with overlap
     ethr =  6.51E-10,  avg # of iterations =  1.0

     negative rho (up, down):  5.012E-02 0.000E+00

     total cpu time spent up to now is        6.6 secs

     The total energy is the sum of the following terms:

     one-electron contribution =     -19.60667500 Ry
     hartree contribution      =      10.40612576 Ry
     xc contribution           =      -7.23203519 Ry
     ewald contribution        =       0.88693575 Ry

     total energy              =     -15.54555825 Ry
     Harris-Foulkes estimate   =     -15.54555828 Ry
     estimated scf accuracy    <       0.00000002 Ry

     iteration #  8     ecut=    18.00 Ry     beta=0.30
     Davidson diagonalization with overlap
     ethr =  2.22E-10,  avg # of iterations =  2.0

     negative rho (up, down):  5.012E-02 0.000E+00

     total cpu time spent up to now is        6.8 secs

     The total energy is the sum of the following terms:

     one-electron contribution =     -19.60654874 Ry
     hartree contribution      =      10.40609805 Ry
     xc contribution           =      -7.23203480 Ry
     ewald contribution        =       0.88693575 Ry

     total energy              =     -15.54555826 Ry
     Harris-Foulkes estimate   =     -15.54555825 Ry
     estimated scf accuracy    <          5.5E-10 Ry

     iteration #  9     ecut=    18.00 Ry     beta=0.30
     Davidson diagonalization with overlap
     ethr =  6.82E-12,  avg # of iterations =  2.0

     negative rho (up, down):  5.012E-02 0.000E+00

     total cpu time spent up to now is        6.9 secs

     End of self-consistent calculation

          k = 0.0000 0.0000 0.0000 (  1473 PWs)   bands (ev):

   -14.0457  -8.6456  -8.6193  -8.6147

     highest occupied level (ev):    -8.6147

     The total energy is the sum of the following terms:

     one-electron contribution =     -19.60658435 Ry
     hartree contribution      =      10.40613620 Ry
     xc contribution           =      -7.23204586 Ry
     ewald contribution        =       0.88693575 Ry

!    total energy              =     -15.54555826 Ry
     Harris-Foulkes estimate   =     -15.54555826 Ry
     estimated scf accuracy    <          8.3E-11 Ry

     The total energy is the sum of the following terms:

     one-electron contribution =     -19.60658435 Ry
     hartree contribution      =      10.40613620 Ry
     xc contribution           =      -7.23204586 Ry
     ewald contribution        =       0.88693575 Ry
     electric field correction =       0.00000000 Ry

     convergence has been achieved in   9 iterations
 
     Using a distance-based cell
     Adding the potential well
        Amplitude [Ry a.u.] : -3.0747E-01
        Atom selected :           1
        Well size     :  2.6456E+00
 
 
     Using a distance-based cell
     Adding the potential well
        Amplitude [Ry a.u.] : -3.0747E-01
        Atom selected :           1
        Well size     :  2.6456E+00
 
     E field correction :    1.37470934608808       Ry
     #e's   in well     :   0.942066341958985       electrons
     Surplus/deficit electrons    :    5.793365804101525E-002 electrons
     epcdft_thr                   :    1.000000000000000E-006 electrons
 
     -----------------------------------------------
 
                      SCF converged but...
 
     electron localization condition NOT satisfied
     restarting scf with different applied potential
 
     New field Amp      :  -0.331334070607492       Ry
     charge density from previous step

     Check: negative/imaginary core charge=   -0.000002    0.000000

     negative rho (up, down):  5.012E-02 0.000E+00
 
     Using a distance-based cell
     Adding the potential well
        Amplitude [Ry a.u.] : -3.3133E-01
        Atom selected :           1
        Well size     :  2.6456E+00
 

     total cpu time spent up to now is        7.0 secs

     per-process dynamical memory:    19.9 Mb

     Self-consistent Calculation

     iteration #  1     ecut=    18.00 Ry     beta=0.30
     Davidson diagonalization with overlap
     ethr =  6.82E-12,  avg # of iterations =  9.0

     negative rho (up, down):  5.065E-02 0.000E+00

     total cpu time spent up to now is        7.1 secs

     The total energy is the sum of the following terms:

     one-electron contribution =     -19.79130757 Ry
     hartree contribution      =      10.43573441 Ry
     xc contribution           =      -7.23837172 Ry
     ewald contribution        =       0.88693575 Ry

     total energy              =     -15.65260748 Ry
     Harris-Foulkes estimate   =     -15.65286022 Ry
     estimated scf accuracy    <       0.00068368 Ry

     iteration #  2     ecut=    18.00 Ry     beta=0.30
     Davidson diagonalization with overlap
     ethr =  8.55E-06,  avg # of iterations =  1.0

     negative rho (up, down):  5.108E-02 0.000E+00

     total cpu time spent up to now is        7.2 secs

     The total energy is the sum of the following terms:

     one-electron contribution =     -19.77210160 Ry
     hartree contribution      =      10.46006601 Ry
     xc contribution           =      -7.24345047 Ry
     ewald contribution        =       0.88693575 Ry

     total energy              =     -15.65256471 Ry
     Harris-Foulkes estimate   =     -15.65264464 Ry
     estimated scf accuracy    <       0.00013984 Ry

     iteration #  3     ecut=    18.00 Ry     beta=0.30
     Davidson diagonalization with overlap
     ethr =  1.75E-06,  avg # of iterations =  2.0

     negative rho (up, down):  5.107E-02 0.000E+00

     total cpu time spent up to now is        7.3 secs

     The total energy is the sum of the following terms:

     one-electron contribution =     -19.75683472 Ry
     hartree contribution      =      10.46007279 Ry
     xc contribution           =      -7.24352922 Ry
     ewald contribution        =       0.88693575 Ry

     total energy              =     -15.65259646 Ry
     Harris-Foulkes estimate   =     -15.65259665 Ry
     estimated scf accuracy    <       0.00000285 Ry

     iteration #  4     ecut=    18.00 Ry     beta=0.30
     Davidson diagonalization with overlap
     ethr =  3.56E-08,  avg # of iterations =  1.0

     negative rho (up, down):  5.098E-02 0.000E+00

     total cpu time spent up to now is        7.5 secs

     The total energy is the sum of the following terms:

     one-electron contribution =     -19.75697103 Ry
     hartree contribution      =      10.46219849 Ry
     xc contribution           =      -7.24475332 Ry
     ewald contribution        =       0.88693575 Ry

     total energy              =     -15.65259594 Ry
     Harris-Foulkes estimate   =     -15.65259654 Ry
     estimated scf accuracy    <       0.00000226 Ry

     iteration #  5     ecut=    18.00 Ry     beta=0.30
     Davidson diagonalization with overlap
     ethr =  2.83E-08,  avg # of iterations =  2.0

     negative rho (up, down):  5.099E-02 0.000E+00

     total cpu time spent up to now is        7.6 secs

     The total energy is the sum of the following terms:

     one-electron contribution =     -19.75776472 Ry
     hartree contribution      =      10.46276292 Ry
     xc contribution           =      -7.24487978 Ry
     ewald contribution        =       0.88693575 Ry

     total energy              =     -15.65259624 Ry
     Harris-Foulkes estimate   =     -15.65259631 Ry
     estimated scf accuracy    <       0.00000016 Ry

     iteration #  6     ecut=    18.00 Ry     beta=0.30
     Davidson diagonalization with overlap
     ethr =  2.05E-09,  avg # of iterations =  2.0

     negative rho (up, down):  5.098E-02 0.000E+00

     total cpu time spent up to now is        7.7 secs

     The total energy is the sum of the following terms:

     one-electron contribution =     -19.75744689 Ry
     hartree contribution      =      10.46268161 Ry
     xc contribution           =      -7.24482646 Ry
     ewald contribution        =       0.88693575 Ry

     total energy              =     -15.65259624 Ry
     Harris-Foulkes estimate   =     -15.65259626 Ry
     estimated scf accuracy    <       0.00000004 Ry

     iteration #  7     ecut=    18.00 Ry     beta=0.30
     Davidson diagonalization with overlap
     ethr =  4.82E-10,  avg # of iterations =  1.0

     negative rho (up, down):  5.098E-02 0.000E+00

     total cpu time spent up to now is        7.8 secs

     The total energy is the sum of the following terms:

     one-electron contribution =     -19.75741518 Ry
     hartree contribution      =      10.46259670 Ry
     xc contribution           =      -7.24477060 Ry
     ewald contribution        =       0.88693575 Ry

     total energy              =     -15.65259623 Ry
     Harris-Foulkes estimate   =     -15.65259625 Ry
     estimated scf accuracy    <       0.00000001 Ry

     iteration #  8     ecut=    18.00 Ry     beta=0.30
     Davidson diagonalization with overlap
     ethr =  1.35E-10,  avg # of iterations =  2.0

     negative rho (up, down):  5.098E-02 0.000E+00

     total cpu time spent up to now is        7.9 secs

     End of self-consistent calculation

          k = 0.0000 0.0000 0.0000 (  1473 PWs)   bands (ev):

   -14.1598  -8.7306  -8.7021  -8.6977

     highest occupied level (ev):    -8.6977

     The total energy is the sum of the following terms:

     one-electron contribution =     -19.75733869 Ry
     hartree contribution      =      10.46257394 Ry
     xc contribution           =      -7.24476723 Ry
     ewald contribution        =       0.88693575 Ry

!    total energy              =     -15.65259623 Ry
     Harris-Foulkes estimate   =     -15.65259623 Ry
     estimated scf accuracy    <          6.6E-11 Ry

     The total energy is the sum of the following terms:

     one-electron contribution =     -19.75733869 Ry
     hartree contribution      =      10.46257394 Ry
     xc contribution           =      -7.24476723 Ry
     ewald contribution        =       0.88693575 Ry
     electric field correction =       0.00000000 Ry

     convergence has been achieved in   8 iterations
 
     Using a distance-based cell
     Adding the potential well
        Amplitude [Ry a.u.] : -3.3133E-01
        Atom selected :           1
        Well size     :  2.6456E+00
 
 
     Using a distance-based cell
     Adding the potential well
        Amplitude [Ry a.u.] : -3.3133E-01
        Atom selected :           1
        Well size     :  2.6456E+00
 
     E field correction :    1.49095864964091       Ry
     #e's   in well     :   0.999730374285277       electrons
     Surplus/deficit electrons    :    2.696257147229986E-004 electrons
     epcdft_thr                   :    1.000000000000000E-006 electrons
 
     -----------------------------------------------
 
                      SCF converged but...
 
     electron localization condition NOT satisfied
     restarting scf with different applied potential
 
     New field Amp      :  -0.331445653512411       Ry
     charge density from previous step

     Check: negative/imaginary core charge=   -0.000002    0.000000

     negative rho (up, down):  5.098E-02 0.000E+00
 
     Using a distance-based cell
     Adding the potential well
        Amplitude [Ry a.u.] : -3.3145E-01
        Atom selected :           1
        Well size     :  2.6456E+00
 

     total cpu time spent up to now is        8.0 secs

     per-process dynamical memory:    19.9 Mb

     Self-consistent Calculation

     iteration #  1     ecut=    18.00 Ry     beta=0.30
     Davidson diagonalization with overlap
     ethr =  1.35E-10,  avg # of iterations =  2.0

     negative rho (up, down):  5.098E-02 0.000E+00

     total cpu time spent up to now is        8.1 secs

     The total energy is the sum of the following terms:

     one-electron contribution =     -19.75822539 Ry
     hartree contribution      =      10.46272222 Ry
     xc contribution           =      -7.24480014 Ry
     ewald contribution        =       0.88693575 Ry

     total energy              =     -15.65309834 Ry
     Harris-Foulkes estimate   =     -15.65309835 Ry
     estimated scf accuracy    <       0.00000002 Ry

     iteration #  2     ecut=    18.00 Ry     beta=0.30
     Davidson diagonalization with overlap
     ethr =  1.99E-10,  avg # of iterations =  1.0

     negative rho (up, down):  5.098E-02 0.000E+00

     total cpu time spent up to now is        8.2 secs

     The total energy is the sum of the following terms:

     one-electron contribution =     -19.75813434 Ry
     hartree contribution      =      10.46285081 Ry
     xc contribution           =      -7.24482677 Ry
     ewald contribution        =       0.88693575 Ry

     total energy              =     -15.65309833 Ry
     Harris-Foulkes estimate   =     -15.65309834 Ry
     estimated scf accuracy    <          3.7E-09 Ry

     iteration #  3     ecut=    18.00 Ry     beta=0.30
     Davidson diagonalization with overlap
     ethr =  4.58E-11,  avg # of iterations =  2.0

     negative rho (up, down):  5.098E-02 0.000E+00

     total cpu time spent up to now is        8.3 secs

     End of self-consistent calculation

          k = 0.0000 0.0000 0.0000 (  1473 PWs)   bands (ev):

   -14.1604  -8.7311  -8.7025  -8.6981

     highest occupied level (ev):    -8.6981

     The total energy is the sum of the following terms:

     one-electron contribution =     -19.75804285 Ry
     hartree contribution      =      10.46283499 Ry
     xc contribution           =      -7.24482623 Ry
     ewald contribution        =       0.88693575 Ry

!    total energy              =     -15.65309834 Ry
     Harris-Foulkes estimate   =     -15.65309833 Ry
     estimated scf accuracy    <          8.3E-11 Ry

     The total energy is the sum of the following terms:

     one-electron contribution =     -19.75804285 Ry
     hartree contribution      =      10.46283499 Ry
     xc contribution           =      -7.24482623 Ry
     ewald contribution        =       0.88693575 Ry
     electric field correction =       0.00000000 Ry

     convergence has been achieved in   3 iterations
 
     Using a distance-based cell
     Adding the potential well
        Amplitude [Ry a.u.] : -3.3145E-01
        Atom selected :           1
        Well size     :  2.6456E+00
 
 
     Using a distance-based cell
     Adding the potential well
        Amplitude [Ry a.u.] : -3.3145E-01
        Atom selected :           1
        Well size     :  2.6456E+00
 
     E field correction :    1.49150505744242       Ry
     #e's   in well     :   0.999997686719230       electrons
     Surplus/deficit electrons    :    2.313280769605797E-006 electrons
     epcdft_thr                   :    1.000000000000000E-006 electrons
 
     -----------------------------------------------
 
                      SCF converged but...
 
     electron localization condition NOT satisfied
     restarting scf with different applied potential
 
     New field Amp      :  -0.331446619133742       Ry
     charge density from previous step

     Check: negative/imaginary core charge=   -0.000002    0.000000

     negative rho (up, down):  5.098E-02 0.000E+00
 
     Using a distance-based cell
     Adding the potential well
        Amplitude [Ry a.u.] : -3.3145E-01
        Atom selected :           1
        Well size     :  2.6456E+00
 

     total cpu time spent up to now is        8.4 secs

     per-process dynamical memory:    21.7 Mb

     Self-consistent Calculation

     iteration #  1     ecut=    18.00 Ry     beta=0.30
     Davidson diagonalization with overlap
     ethr =  4.58E-11,  avg # of iterations =  1.0

     Threshold (ethr) on eigenvalues was too large:
     Diagonalizing with lowered threshold

     Davidson diagonalization with overlap
     ethr =  7.34E-13,  avg # of iterations =  1.0

     negative rho (up, down):  5.098E-02 0.000E+00

     total cpu time spent up to now is        8.6 secs

     End of self-consistent calculation

          k = 0.0000 0.0000 0.0000 (  1473 PWs)   bands (ev):

   -14.1604  -8.7311  -8.7025  -8.6981

     highest occupied level (ev):    -8.6981

     The total energy is the sum of the following terms:

     one-electron contribution =     -19.75806992 Ry
     hartree contribution      =      10.46286352 Ry
     xc contribution           =      -7.24483204 Ry
     ewald contribution        =       0.88693575 Ry

!    total energy              =     -15.65310268 Ry
     Harris-Foulkes estimate   =     -15.65310268 Ry
     estimated scf accuracy    <          6.4E-11 Ry

     The total energy is the sum of the following terms:

     one-electron contribution =     -19.75806992 Ry
     hartree contribution      =      10.46286352 Ry
     xc contribution           =      -7.24483204 Ry
     ewald contribution        =       0.88693575 Ry
     electric field correction =       0.00000000 Ry

     convergence has been achieved in   1 iterations
 
     Using a distance-based cell
     Adding the potential well
        Amplitude [Ry a.u.] : -3.3145E-01
        Atom selected :           1
        Well size     :  2.6456E+00
 
 
     Using a distance-based cell
     Adding the potential well
        Amplitude [Ry a.u.] : -3.3145E-01
        Atom selected :           1
        Well size     :  2.6456E+00
 
     E field correction :    1.49151417118450       Ry
     #e's   in well     :    1.00002646026486       electrons
     Surplus/deficit electrons    :   -2.646026486186059E-005 electrons
     epcdft_thr                   :    1.000000000000000E-006 electrons
 
     -----------------------------------------------
 
                      SCF converged but...
 
     electron localization condition NOT satisfied
     restarting scf with different applied potential
 
     New field Amp      :  -0.331445731144597       Ry
     charge density from previous step

     Check: negative/imaginary core charge=   -0.000002    0.000000

     negative rho (up, down):  5.098E-02 0.000E+00
 
     Using a distance-based cell
     Adding the potential well
        Amplitude [Ry a.u.] : -3.3145E-01
        Atom selected :           1
        Well size     :  2.6456E+00
 

     total cpu time spent up to now is        8.7 secs

     per-process dynamical memory:    21.7 Mb

     Self-consistent Calculation

     iteration #  1     ecut=    18.00 Ry     beta=0.30
     Davidson diagonalization with overlap
     ethr =  7.34E-13,  avg # of iterations =  2.0

     negative rho (up, down):  5.098E-02 0.000E+00

     total cpu time spent up to now is        8.8 secs

     End of self-consistent calculation

          k = 0.0000 0.0000 0.0000 (  1473 PWs)   bands (ev):

   -14.1604  -8.7310  -8.7025  -8.6981

     highest occupied level (ev):    -8.6981

     The total energy is the sum of the following terms:

     one-electron contribution =     -19.75804440 Ry
     hartree contribution      =      10.46283635 Ry
     xc contribution           =      -7.24482638 Ry
     ewald contribution        =       0.88693575 Ry

!    total energy              =     -15.65309869 Ry
     Harris-Foulkes estimate   =     -15.65309869 Ry
     estimated scf accuracy    <          5.6E-11 Ry

     The total energy is the sum of the following terms:

     one-electron contribution =     -19.75804440 Ry
     hartree contribution      =      10.46283635 Ry
     xc contribution           =      -7.24482638 Ry
     ewald contribution        =       0.88693575 Ry
     electric field correction =       0.00000000 Ry

     convergence has been achieved in   1 iterations
 
     Using a distance-based cell
     Adding the potential well
        Amplitude [Ry a.u.] : -3.3145E-01
        Atom selected :           1
        Well size     :  2.6456E+00
 
 
     Using a distance-based cell
     Adding the potential well
        Amplitude [Ry a.u.] : -3.3145E-01
        Atom selected :           1
        Well size     :  2.6456E+00
 
     E field correction :    1.49150562894843       Ry
     #e's   in well     :   0.999999027278093       electrons

     Writing output data file si.save
 
     init_run     :      3.65s CPU      0.49s WALL (       1 calls)
     electrons    :     56.08s CPU      7.64s WALL (       8 calls)
     update_pot   :      1.65s CPU      0.22s WALL (       7 calls)

     Called by init_run:
     wfcinit      :      0.06s CPU      0.01s WALL (       1 calls)
     potinit      :      0.26s CPU      0.03s WALL (       1 calls)

     Called by electrons:
     c_bands      :      7.22s CPU      0.97s WALL (      68 calls)
     sum_band     :     12.10s CPU      1.57s WALL (      68 calls)
     v_of_rho     :     14.60s CPU      1.95s WALL (      75 calls)
     newd         :     23.48s CPU      3.34s WALL (      75 calls)
     mix_rho      :      1.91s CPU      0.25s WALL (      68 calls)

     Called by c_bands:
     init_us_2    :      0.49s CPU      0.07s WALL (     137 calls)
     regterg      :      5.76s CPU      0.77s WALL (      68 calls)

     Called by *egterg:
     h_psi        :      5.15s CPU      0.70s WALL (     208 calls)
     s_psi        :      0.10s CPU      0.01s WALL (     208 calls)
     g_psi        :      0.04s CPU      0.01s WALL (     139 calls)
     rdiaghg      :      0.11s CPU      0.01s WALL (     199 calls)

     Called by h_psi:
     add_vuspsi   :      0.10s CPU      0.02s WALL (     208 calls)

     General routines
     calbec       :      0.24s CPU      0.04s WALL (     276 calls)
     fft          :      8.51s CPU      1.13s WALL (     963 calls)
     fftw         :      4.48s CPU      0.60s WALL (     956 calls)
     davcio       :      0.00s CPU      0.00s WALL (       1 calls)
 
     Parallel routines
     fft_scatter  :      2.39s CPU      0.31s WALL (    1919 calls)
 
     PWSCF        :  1m 4.36s CPU     0m 8.81s WALL

 
   This run was terminated on:  15:32:23  12Jun2015            

=------------------------------------------------------------------------------=
   JOB DONE.
=------------------------------------------------------------------------------=
