
     Program PWSCF v.5.1.1 starts on 10Jun2015 at 11:46:33 

     This program is part of the open-source Quantum ESPRESSO suite
     for quantum simulation of materials; please cite
         "P. Giannozzi et al., J. Phys.:Condens. Matter 21 395502 (2009);
          URL http://www.quantum-espresso.org", 
     in publications or presentations arising from this work. More details at
     http://www.quantum-espresso.org/quote

     Parallel version (MPI & OpenMP), running on       8 processor cores
     Number of MPI processes:                 8
     Threads/MPI process:                     1
     R & G space division:  proc/nbgrp/npool/nimage =       8
     Waiting for input...
     Reading input from standard input
Warning: card &IONS ignored
Warning: card / ignored

     Current dimensions of program PWSCF are:
     Max number of different atomic species (ntypx) = 10
     Max number of k-points (npk) =  40000
     Max angular momentum in pseudopotentials (lmaxx) =  3
               file Zn.pbe-mt_fhi.UPF: wavefunction(s)  4p 4f renormalized

     gamma-point specific algorithms are used
     Message from routine setup:
     the system is metallic, specify occupations

     Subspace diagonalization in iterative solution of the eigenvalue problem:
     scalapack distributed-memory algorithm (size of sub-group:  2*  2 procs)

     Found symmetry operation: I + ( -0.5000  0.0000  0.0000)
     This is a supercell, fractional translations are disabled
 
     Parallelization info
     --------------------
     sticks:   dense  smooth     PW     G-vecs:    dense   smooth      PW
     Min         851     851    212                52960    52960    6612
     Max         854     854    214                52966    52966    6618
     Sum        6817    6817   1701               423701   423701   52923
     Tot        3409    3409    851
 
     Generating pointlists ...
     new r_m :   0.2063 (alat units)  3.8976 (a.u.) for type    1


     bravais-lattice index     =            1
     lattice parameter (alat)  =      18.8973  a.u.
     unit-cell volume          =    6748.3346 (a.u.)^3
     number of atoms/cell      =            2
     number of atomic types    =            1
     number of electrons       =        23.00 (up:  12.00, down:  11.00)
     number of Kohn-Sham states=           12
     kinetic-energy cutoff     =      60.0000  Ry
     charge density cutoff     =     240.0000  Ry
     convergence threshold     =      1.0E-08
     mixing beta               =       0.3000
     number of iterations used =            8  plain     mixing
     Exchange-correlation      = PBE ( 1  4  3  4 0 0)

     celldm(1)=  18.897261  celldm(2)=   0.000000  celldm(3)=   0.000000
     celldm(4)=   0.000000  celldm(5)=   0.000000  celldm(6)=   0.000000

     crystal axes: (cart. coord. in units of alat)
               a(1) = (   1.000000   0.000000   0.000000 )  
               a(2) = (   0.000000   1.000000   0.000000 )  
               a(3) = (   0.000000   0.000000   1.000000 )  

     reciprocal axes: (cart. coord. in units 2 pi/alat)
               b(1) = (  1.000000  0.000000  0.000000 )  
               b(2) = (  0.000000  1.000000  0.000000 )  
               b(3) = (  0.000000  0.000000  1.000000 )  


     PseudoPot. # 1 for Zn read from file:
     /home/matt/espresso/pseudo/Zn.pbe-mt_fhi.UPF
     MD5 check sum: 5596c9f2b89b9f7367257e7ea958b26e
     Pseudo is Norm-conserving, Zval = 12.0
     Generated using FHI98PP, converted with fhi2upf.x v.5.0.2
     Using radial grid of  527 points,  3 beta functions with: 
                l(1) =   1
                l(2) =   2
                l(3) =   3

     atomic species   valence    mass     pseudopotential
        Zn            12.00    65.39000     Zn( 1.00)

     Starting magnetic structure 
     atomic species   magnetization
        Zn           0.000

     No symmetry found


                                    s                        frac. trans.

      isym =  1     identity                                     

 cryst.   s( 1) = (     1          0          0      )
                  (     0          1          0      )
                  (     0          0          1      )

 cart.    s( 1) = (  1.0000000  0.0000000  0.0000000 )
                  (  0.0000000  1.0000000  0.0000000 )
                  (  0.0000000  0.0000000  1.0000000 )


     point group C_1 (1)    
     there are  1 classes
     the character table:

       E    
A      1.00

     the symmetry operations in each class:
     E        1

   Cartesian axes

     site n.     atom                  positions (alat units)
         1           Zn  tau(   1) = (   0.0000000   0.0000000   0.0000000  )
         2           Zn  tau(   2) = (   0.5000000   0.0000000   0.0000000  )

   Crystallographic axes

     site n.     atom                  positions (cryst. coord.)
         1           Zn  tau(   1) = (  0.0000000  0.0000000  0.0000000  )
         2           Zn  tau(   2) = (  0.5000000  0.0000000  0.0000000  )

     number of k points=     2
                       cart. coord. in units 2pi/alat
        k(    1) = (   0.0000000   0.0000000   0.0000000), wk =   1.0000000
        k(    2) = (   0.0000000   0.0000000   0.0000000), wk =   1.0000000

                       cryst. coord.
        k(    1) = (   0.0000000   0.0000000   0.0000000), wk =   1.0000000
        k(    2) = (   0.0000000   0.0000000   0.0000000), wk =   1.0000000

     Dense  grid:   211851 G-vectors     FFT dimensions: (  96,  96,  96)

     Largest allocated arrays     est. size (Mb)     dimensions
        Kohn-Sham Wavefunctions         0.61 Mb     (    3308,   12)
        NL pseudopotentials             1.51 Mb     (    3308,   30)
        Each V/rho on FFT grid          3.38 Mb     (  110592,   2)
        Each G-vector array             0.20 Mb     (   26482)
        G-vector shells                 0.01 Mb     (    1749)
     Largest temporary arrays     est. size (Mb)     dimensions
        Auxiliary wavefunctions         1.21 Mb     (    3308,   48)
        Each subspace H/S matrix        0.00 Mb     (      24,   24)
        Each <psi_i|beta_j> matrix      0.00 Mb     (      30,   12)
        Arrays for rho mixing          13.50 Mb     (  110592,    8)
 
     Using Voronoi cells
     Adding the potential well
        Amplitude [Ry a.u.] : -3.2000E-01
        Fragment start :           1
        Fragment end   :           1
 

     Initial potential from superposition of free atoms
     Check: negative starting charge=(component1):   -0.000227
     Check: negative starting charge=(component2):   -0.000227

     starting charge   23.99975, renormalised to   23.00000

     negative rho (up, down):  2.175E-04 2.175E-04
     Starting wfc are   32 randomized atomic wfcs

     total cpu time spent up to now is        1.6 secs

     per-process dynamical memory:    37.2 Mb

     Self-consistent Calculation

     iteration #  1     ecut=    60.00 Ry     beta=0.30
     Davidson diagonalization with overlap
     ethr =  1.00E-02,  avg # of iterations =  2.0

     negative rho (up, down):  1.180E-04 1.242E-04
 
     Magnetic moment per site:
     atom:    1    charge:   11.5078    magn:    0.0007    constr:    0.0000
     atom:    2    charge:   11.2177    magn:    0.2859    constr:    0.0000

     total cpu time spent up to now is        3.6 secs

     The total energy is the sum of the following terms:

     one-electron contribution =    -318.09027894 Ry
     hartree contribution      =     161.26222596 Ry
     xc contribution           =     -31.76285985 Ry
     ewald contribution        =     -44.70331250 Ry

     total energy              =    -224.05029125 Ry
     Harris-Foulkes estimate   =    -224.31642967 Ry
     estimated scf accuracy    <       0.63037683 Ry

     total magnetization       =     1.00 Bohr mag/cell
     absolute magnetization    =     1.00 Bohr mag/cell

     iteration #  2     ecut=    60.00 Ry     beta=0.30
     Davidson diagonalization with overlap
     ethr =  2.74E-03,  avg # of iterations =  2.0

     negative rho (up, down):  1.873E-05 2.241E-05
 
     Magnetic moment per site:
     atom:    1    charge:   11.7347    magn:    0.0025    constr:    0.0000
     atom:    2    charge:   11.0614    magn:    0.6795    constr:    0.0000

     total cpu time spent up to now is        5.1 secs

     The total energy is the sum of the following terms:

     one-electron contribution =    -315.32745175 Ry
     hartree contribution      =     165.82247814 Ry
     xc contribution           =     -32.47331849 Ry
     ewald contribution        =     -44.70331250 Ry

     total energy              =    -223.97784665 Ry
     Harris-Foulkes estimate   =    -224.08269695 Ry
     estimated scf accuracy    <       0.16618591 Ry

     total magnetization       =     1.00 Bohr mag/cell
     absolute magnetization    =     1.00 Bohr mag/cell

     iteration #  3     ecut=    60.00 Ry     beta=0.30
     Davidson diagonalization with overlap
     ethr =  7.23E-04,  avg # of iterations =  3.0

     negative rho (up, down):  2.182E-06 2.731E-06
 
     Magnetic moment per site:
     atom:    1    charge:   11.7686    magn:    0.0109    constr:    0.0000
     atom:    2    charge:   11.0124    magn:    0.8141    constr:    0.0000

     total cpu time spent up to now is        6.7 secs

     The total energy is the sum of the following terms:

     one-electron contribution =    -311.79485587 Ry
     hartree contribution      =     164.59268406 Ry
     xc contribution           =     -32.30614219 Ry
     ewald contribution        =     -44.70331250 Ry

     total energy              =    -224.01368948 Ry
     Harris-Foulkes estimate   =    -224.01657401 Ry
     estimated scf accuracy    <       0.00894212 Ry

     total magnetization       =     1.00 Bohr mag/cell
     absolute magnetization    =     1.01 Bohr mag/cell

     iteration #  4     ecut=    60.00 Ry     beta=0.30
     Davidson diagonalization with overlap
     ethr =  3.89E-05,  avg # of iterations =  2.0

     negative rho (up, down):  3.724E-08 5.363E-08
 
     Magnetic moment per site:
     atom:    1    charge:   11.8117    magn:    0.0127    constr:    0.0000
     atom:    2    charge:   10.9791    magn:    0.9024    constr:    0.0000

     total cpu time spent up to now is        8.3 secs

     The total energy is the sum of the following terms:

     one-electron contribution =    -312.84253178 Ry
     hartree contribution      =     165.38682063 Ry
     xc contribution           =     -32.43698103 Ry
     ewald contribution        =     -44.70331250 Ry

     total energy              =    -224.01454087 Ry
     Harris-Foulkes estimate   =    -224.01787916 Ry
     estimated scf accuracy    <       0.00630328 Ry

     total magnetization       =     1.00 Bohr mag/cell
     absolute magnetization    =     1.01 Bohr mag/cell

     iteration #  5     ecut=    60.00 Ry     beta=0.30
     Davidson diagonalization with overlap
     ethr =  2.74E-05,  avg # of iterations =  2.0
 
     Magnetic moment per site:
     atom:    1    charge:   11.8143    magn:    0.0173    constr:    0.0000
     atom:    2    charge:   10.9750    magn:    0.9224    constr:    0.0000

     total cpu time spent up to now is        9.9 secs

     The total energy is the sum of the following terms:

     one-electron contribution =    -312.23111010 Ry
     hartree contribution      =     165.44219188 Ry
     xc contribution           =     -32.45033096 Ry
     ewald contribution        =     -44.70331250 Ry

     total energy              =    -224.01594652 Ry
     Harris-Foulkes estimate   =    -224.01581735 Ry
     estimated scf accuracy    <       0.00009891 Ry

     total magnetization       =     1.00 Bohr mag/cell
     absolute magnetization    =     1.02 Bohr mag/cell

     iteration #  6     ecut=    60.00 Ry     beta=0.30
     Davidson diagonalization with overlap
     ethr =  4.30E-07,  avg # of iterations =  3.0
 
     Magnetic moment per site:
     atom:    1    charge:   11.8134    magn:    0.0221    constr:    0.0000
     atom:    2    charge:   10.9718    magn:    0.9410    constr:    0.0000

     total cpu time spent up to now is       11.4 secs

     The total energy is the sum of the following terms:

     one-electron contribution =    -312.16787732 Ry
     hartree contribution      =     165.38462048 Ry
     xc contribution           =     -32.44750868 Ry
     ewald contribution        =     -44.70331250 Ry

     total energy              =    -224.01599018 Ry
     Harris-Foulkes estimate   =    -224.01597468 Ry
     estimated scf accuracy    <       0.00008077 Ry

     total magnetization       =     1.00 Bohr mag/cell
     absolute magnetization    =     1.02 Bohr mag/cell

     iteration #  7     ecut=    60.00 Ry     beta=0.30
     Davidson diagonalization with overlap
     ethr =  3.51E-07,  avg # of iterations =  2.0
 
     Magnetic moment per site:
     atom:    1    charge:   11.8139    magn:    0.0215    constr:    0.0000
     atom:    2    charge:   10.9710    magn:    0.9427    constr:    0.0000

     total cpu time spent up to now is       13.1 secs

     The total energy is the sum of the following terms:

     one-electron contribution =    -312.20886942 Ry
     hartree contribution      =     165.36593652 Ry
     xc contribution           =     -32.44504427 Ry
     ewald contribution        =     -44.70331250 Ry

     total energy              =    -224.01599923 Ry
     Harris-Foulkes estimate   =    -224.01600207 Ry
     estimated scf accuracy    <       0.00000688 Ry

     total magnetization       =     1.00 Bohr mag/cell
     absolute magnetization    =     1.02 Bohr mag/cell

     iteration #  8     ecut=    60.00 Ry     beta=0.30
     Davidson diagonalization with overlap
     ethr =  2.99E-08,  avg # of iterations =  2.0
 
     Magnetic moment per site:
     atom:    1    charge:   11.8133    magn:    0.0205    constr:    0.0000
     atom:    2    charge:   10.9712    magn:    0.9414    constr:    0.0000

     total cpu time spent up to now is       14.6 secs

     The total energy is the sum of the following terms:

     one-electron contribution =    -312.22644290 Ry
     hartree contribution      =     165.35619237 Ry
     xc contribution           =     -32.44349762 Ry
     ewald contribution        =     -44.70331250 Ry

     total energy              =    -224.01600059 Ry
     Harris-Foulkes estimate   =    -224.01600050 Ry
     estimated scf accuracy    <       0.00000046 Ry

     total magnetization       =     1.00 Bohr mag/cell
     absolute magnetization    =     1.02 Bohr mag/cell

     iteration #  9     ecut=    60.00 Ry     beta=0.30
     Davidson diagonalization with overlap
     ethr =  2.01E-09,  avg # of iterations =  3.0
 
     Magnetic moment per site:
     atom:    1    charge:   11.8135    magn:    0.0204    constr:    0.0000
     atom:    2    charge:   10.9711    magn:    0.9416    constr:    0.0000

     total cpu time spent up to now is       16.5 secs

     The total energy is the sum of the following terms:

     one-electron contribution =    -312.23366149 Ry
     hartree contribution      =     165.35972417 Ry
     xc contribution           =     -32.44399703 Ry
     ewald contribution        =     -44.70331250 Ry

     total energy              =    -224.01600070 Ry
     Harris-Foulkes estimate   =    -224.01600080 Ry
     estimated scf accuracy    <       0.00000025 Ry

     total magnetization       =     1.00 Bohr mag/cell
     absolute magnetization    =     1.02 Bohr mag/cell

     iteration # 10     ecut=    60.00 Ry     beta=0.30
     Davidson diagonalization with overlap
     ethr =  1.07E-09,  avg # of iterations =  2.0
 
     Magnetic moment per site:
     atom:    1    charge:   11.8136    magn:    0.0204    constr:    0.0000
     atom:    2    charge:   10.9711    magn:    0.9416    constr:    0.0000

     total cpu time spent up to now is       18.1 secs

     The total energy is the sum of the following terms:

     one-electron contribution =    -312.23091442 Ry
     hartree contribution      =     165.36108869 Ry
     xc contribution           =     -32.44418320 Ry
     ewald contribution        =     -44.70331250 Ry

     total energy              =    -224.01600073 Ry
     Harris-Foulkes estimate   =    -224.01600073 Ry
     estimated scf accuracy    <       0.00000002 Ry

     total magnetization       =     1.00 Bohr mag/cell
     absolute magnetization    =     1.02 Bohr mag/cell

     iteration # 11     ecut=    60.00 Ry     beta=0.30
     Davidson diagonalization with overlap
     ethr =  8.42E-11,  avg # of iterations =  3.0
 
     Magnetic moment per site:
     atom:    1    charge:   11.8136    magn:    0.0204    constr:    0.0000
     atom:    2    charge:   10.9711    magn:    0.9416    constr:    0.0000

     total cpu time spent up to now is       19.6 secs

     End of self-consistent calculation

 ------ SPIN UP ------------


          k = 0.0000 0.0000 0.0000 ( 26462 PWs)   bands (ev):

   -15.2162 -15.2156 -15.2149 -15.2149 -15.2145 -13.9621 -13.9493 -13.9493
   -13.9217 -13.9208 -10.1386  -9.8420

     occupation numbers 
     1.0000   1.0000   1.0000   1.0000   1.0000   1.0000   1.0000   1.0000
     1.0000   1.0000   1.0000   1.0000

 ------ SPIN DOWN ----------


          k = 0.0000 0.0000 0.0000 ( 26462 PWs)   bands (ev):

   -14.9683 -14.9670 -14.9669 -14.9669 -14.9662 -13.9567 -13.9443 -13.9443
   -13.9176 -13.9167  -9.9179  -8.8900

     occupation numbers 
     1.0000   1.0000   1.0000   1.0000   1.0000   1.0000   1.0000   1.0000
     1.0000   1.0000   1.0000   0.0000

     highest occupied level (ev):    -9.8420

     The total energy is the sum of the following terms:

     one-electron contribution =    -312.22984763 Ry
     hartree contribution      =     165.36136942 Ry
     xc contribution           =     -32.44421002 Ry
     ewald contribution        =     -44.70331250 Ry

!    total energy              =    -224.01600073 Ry
     Harris-Foulkes estimate   =    -224.01600073 Ry
     estimated scf accuracy    <          4.0E-10 Ry

     The total energy is the sum of the following terms:

     one-electron contribution =    -312.22984763 Ry
     hartree contribution      =     165.36136942 Ry
     xc contribution           =     -32.44421002 Ry
     ewald contribution        =     -44.70331250 Ry
     electric field correction =       0.00000000 Ry

     total magnetization       =     1.00 Bohr mag/cell
     absolute magnetization    =     1.02 Bohr mag/cell

     convergence has been achieved in  11 iterations
 
     Using Voronoi cells
     Adding the potential well
        Amplitude [Ry a.u.] : -3.2000E-01
        Fragment start :           1
        Fragment end   :           1
 
 
     Using Voronoi cells
     Adding the potential well
        Amplitude [Ry a.u.] : -3.2000E-01
        Fragment start :           1
        Fragment end   :           1
 
     E field correction :    3.83250636418018       Ry
     #e's   in well     :    11.9765823880640       electrons
     Numerical error    :    2.341761193599723E-002 electrons
 
     -----------------------------------------------
 
                      SCF converged but...
 
     electron localization condition NOT satisfied
     restarting scf with different applied potential
 
     New field Amp      :  -0.327493635819519       Ry
     charge density from previous step
 
     Using Voronoi cells
     Adding the potential well
        Amplitude [Ry a.u.] : -3.2749E-01
        Fragment start :           1
        Fragment end   :           1
 

     total cpu time spent up to now is       20.4 secs

     per-process dynamical memory:    45.9 Mb

     Self-consistent Calculation

     iteration #  1     ecut=    60.00 Ry     beta=0.30
     Davidson diagonalization with overlap
     ethr =  8.42E-11,  avg # of iterations =  5.0
 
     Magnetic moment per site:
     atom:    1    charge:   11.8146    magn:    0.0195    constr:    0.0000
     atom:    2    charge:   10.9702    magn:    0.9424    constr:    0.0000

     total cpu time spent up to now is       22.5 secs

     The total energy is the sum of the following terms:

     one-electron contribution =    -312.32224833 Ry
     hartree contribution      =     165.36232345 Ry
     xc contribution           =     -32.44437176 Ry
     ewald contribution        =     -44.70331250 Ry

     total energy              =    -224.10575974 Ry
     Harris-Foulkes estimate   =    -224.10576141 Ry
     estimated scf accuracy    <       0.00000479 Ry

     total magnetization       =     1.00 Bohr mag/cell
     absolute magnetization    =     1.02 Bohr mag/cell

     iteration #  2     ecut=    60.00 Ry     beta=0.30
     Davidson diagonalization with overlap
     ethr =  2.08E-08,  avg # of iterations =  1.5
 
     Magnetic moment per site:
     atom:    1    charge:   11.8158    magn:    0.0183    constr:    0.0000
     atom:    2    charge:   10.9691    magn:    0.9435    constr:    0.0000

     total cpu time spent up to now is       24.0 secs

     The total energy is the sum of the following terms:

     one-electron contribution =    -312.32034604 Ry
     hartree contribution      =     165.36237344 Ry
     xc contribution           =     -32.44445504 Ry
     ewald contribution        =     -44.70331250 Ry

     total energy              =    -224.10575916 Ry
     Harris-Foulkes estimate   =    -224.10575992 Ry
     estimated scf accuracy    <       0.00000157 Ry

     total magnetization       =     1.00 Bohr mag/cell
     absolute magnetization    =     1.02 Bohr mag/cell

     iteration #  3     ecut=    60.00 Ry     beta=0.30
     Davidson diagonalization with overlap
     ethr =  6.81E-09,  avg # of iterations =  2.0
 
     Magnetic moment per site:
     atom:    1    charge:   11.8160    magn:    0.0180    constr:    0.0000
     atom:    2    charge:   10.9688    magn:    0.9438    constr:    0.0000

     total cpu time spent up to now is       25.3 secs

     The total energy is the sum of the following terms:

     one-electron contribution =    -312.31902768 Ry
     hartree contribution      =     165.36155991 Ry
     xc contribution           =     -32.44442273 Ry
     ewald contribution        =     -44.70331250 Ry

     total energy              =    -224.10575935 Ry
     Harris-Foulkes estimate   =    -224.10575937 Ry
     estimated scf accuracy    <       0.00000009 Ry

     total magnetization       =     1.00 Bohr mag/cell
     absolute magnetization    =     1.02 Bohr mag/cell

     iteration #  4     ecut=    60.00 Ry     beta=0.30
     Davidson diagonalization with overlap
     ethr =  4.04E-10,  avg # of iterations =  2.0
 
     Magnetic moment per site:
     atom:    1    charge:   11.8161    magn:    0.0178    constr:    0.0000
     atom:    2    charge:   10.9687    magn:    0.9440    constr:    0.0000

     total cpu time spent up to now is       26.6 secs

     End of self-consistent calculation

 ------ SPIN UP ------------


          k = 0.0000 0.0000 0.0000 ( 26462 PWs)   bands (ev):

   -15.2326 -15.2321 -15.2314 -15.2314 -15.2311 -14.0481 -14.0353 -14.0353
   -14.0076 -14.0067 -10.1758  -9.9073

     occupation numbers 
     1.0000   1.0000   1.0000   1.0000   1.0000   1.0000   1.0000   1.0000
     1.0000   1.0000   1.0000   1.0000

 ------ SPIN DOWN ----------


          k = 0.0000 0.0000 0.0000 ( 26462 PWs)   bands (ev):

   -14.9840 -14.9828 -14.9827 -14.9827 -14.9820 -14.0433 -14.0309 -14.0309
   -14.0040 -14.0032 -10.0081  -8.8991

     occupation numbers 
     1.0000   1.0000   1.0000   1.0000   1.0000   1.0000   1.0000   1.0000
     1.0000   1.0000   1.0000   0.0000

     highest occupied level (ev):    -9.9073

     The total energy is the sum of the following terms:

     one-electron contribution =    -312.31966904 Ry
     hartree contribution      =     165.36172617 Ry
     xc contribution           =     -32.44450398 Ry
     ewald contribution        =     -44.70331250 Ry

!    total energy              =    -224.10575936 Ry
     Harris-Foulkes estimate   =    -224.10575936 Ry
     estimated scf accuracy    <          6.0E-09 Ry

     The total energy is the sum of the following terms:

     one-electron contribution =    -312.31966904 Ry
     hartree contribution      =     165.36172617 Ry
     xc contribution           =     -32.44450398 Ry
     ewald contribution        =     -44.70331250 Ry
     electric field correction =       0.00000000 Ry

     total magnetization       =     1.00 Bohr mag/cell
     absolute magnetization    =     1.02 Bohr mag/cell

     convergence has been achieved in   4 iterations
 
     Using Voronoi cells
     Adding the potential well
        Amplitude [Ry a.u.] : -3.2749E-01
        Fragment start :           1
        Fragment end   :           1
 
 
     Using Voronoi cells
     Adding the potential well
        Amplitude [Ry a.u.] : -3.2749E-01
        Fragment start :           1
        Fragment end   :           1
 
     E field correction :    3.92314215116609       Ry
     #e's   in well     :    11.9792927925113       electrons
     Numerical error    :    2.070720748871402E-002 electrons
 
     -----------------------------------------------
 
                      SCF converged but...
 
     electron localization condition NOT satisfied
     restarting scf with different applied potential
 
     New field Amp      :  -0.334275114487667       Ry
     charge density from previous step
 
     Using Voronoi cells
     Adding the potential well
        Amplitude [Ry a.u.] : -3.3428E-01
        Fragment start :           1
        Fragment end   :           1
 

     total cpu time spent up to now is       27.5 secs

     per-process dynamical memory:    45.9 Mb

     Self-consistent Calculation

     iteration #  1     ecut=    60.00 Ry     beta=0.30
     Davidson diagonalization with overlap
     ethr =  4.04E-10,  avg # of iterations =  4.0
 
     Magnetic moment per site:
     atom:    1    charge:   11.8168    magn:    0.0171    constr:    0.0000
     atom:    2    charge:   10.9681    magn:    0.9446    constr:    0.0000

     total cpu time spent up to now is       29.3 secs

     The total energy is the sum of the following terms:

     one-electron contribution =    -312.40294944 Ry
     hartree contribution      =     165.36245565 Ry
     xc contribution           =     -32.44462290 Ry
     ewald contribution        =     -44.70331250 Ry

     total energy              =    -224.18700416 Ry
     Harris-Foulkes estimate   =    -224.18700508 Ry
     estimated scf accuracy    <       0.00000267 Ry

     total magnetization       =     1.00 Bohr mag/cell
     absolute magnetization    =     1.02 Bohr mag/cell

     iteration #  2     ecut=    60.00 Ry     beta=0.30
     Davidson diagonalization with overlap
     ethr =  1.16E-08,  avg # of iterations =  1.5
 
     Magnetic moment per site:
     atom:    1    charge:   11.8178    magn:    0.0162    constr:    0.0000
     atom:    2    charge:   10.9672    magn:    0.9454    constr:    0.0000

     total cpu time spent up to now is       30.7 secs

     The total energy is the sum of the following terms:

     one-electron contribution =    -312.40161013 Ry
     hartree contribution      =     165.36258024 Ry
     xc contribution           =     -32.44469155 Ry
     ewald contribution        =     -44.70331250 Ry

     total energy              =    -224.18700383 Ry
     Harris-Foulkes estimate   =    -224.18700426 Ry
     estimated scf accuracy    <       0.00000091 Ry

     total magnetization       =     1.00 Bohr mag/cell
     absolute magnetization    =     1.02 Bohr mag/cell

     iteration #  3     ecut=    60.00 Ry     beta=0.30
     Davidson diagonalization with overlap
     ethr =  3.96E-09,  avg # of iterations =  2.0
 
     Magnetic moment per site:
     atom:    1    charge:   11.8179    magn:    0.0159    constr:    0.0000
     atom:    2    charge:   10.9670    magn:    0.9457    constr:    0.0000

     total cpu time spent up to now is       32.2 secs

     The total energy is the sum of the following terms:

     one-electron contribution =    -312.40050481 Ry
     hartree contribution      =     165.36191722 Ry
     xc contribution           =     -32.44466116 Ry
     ewald contribution        =     -44.70331250 Ry

     total energy              =    -224.18700394 Ry
     Harris-Foulkes estimate   =    -224.18700395 Ry
     estimated scf accuracy    <       0.00000006 Ry

     total magnetization       =     1.00 Bohr mag/cell
     absolute magnetization    =     1.02 Bohr mag/cell

     iteration #  4     ecut=    60.00 Ry     beta=0.30
     Davidson diagonalization with overlap
     ethr =  2.42E-10,  avg # of iterations =  2.0
 
     Magnetic moment per site:
     atom:    1    charge:   11.8180    magn:    0.0158    constr:    0.0000
     atom:    2    charge:   10.9669    magn:    0.9458    constr:    0.0000

     total cpu time spent up to now is       33.6 secs

     End of self-consistent calculation

 ------ SPIN UP ------------


          k = 0.0000 0.0000 0.0000 ( 26462 PWs)   bands (ev):

   -15.2453 -15.2449 -15.2441 -15.2441 -15.2439 -14.1280 -14.1152 -14.1152
   -14.0875 -14.0866 -10.2181  -9.9580

     occupation numbers 
     1.0000   1.0000   1.0000   1.0000   1.0000   1.0000   1.0000   1.0000
     1.0000   1.0000   1.0000   1.0000

 ------ SPIN DOWN ----------


          k = 0.0000 0.0000 0.0000 ( 26462 PWs)   bands (ev):

   -14.9962 -14.9950 -14.9949 -14.9949 -14.9943 -14.1236 -14.1112 -14.1112
   -14.0843 -14.0835 -10.0912  -8.9058

     occupation numbers 
     1.0000   1.0000   1.0000   1.0000   1.0000   1.0000   1.0000   1.0000
     1.0000   1.0000   1.0000   0.0000

     highest occupied level (ev):    -9.9580

     The total energy is the sum of the following terms:

     one-electron contribution =    -312.40107148 Ry
     hartree contribution      =     165.36211296 Ry
     xc contribution           =     -32.44473293 Ry
     ewald contribution        =     -44.70331250 Ry

!    total energy              =    -224.18700394 Ry
     Harris-Foulkes estimate   =    -224.18700395 Ry
     estimated scf accuracy    <          3.7E-09 Ry

     The total energy is the sum of the following terms:

     one-electron contribution =    -312.40107148 Ry
     hartree contribution      =     165.36211296 Ry
     xc contribution           =     -32.44473293 Ry
     ewald contribution        =     -44.70331250 Ry
     electric field correction =       0.00000000 Ry

     total magnetization       =     1.00 Bohr mag/cell
     absolute magnetization    =     1.02 Bohr mag/cell

     convergence has been achieved in   4 iterations
 
     Using Voronoi cells
     Adding the potential well
        Amplitude [Ry a.u.] : -3.3428E-01
        Fragment start :           1
        Fragment end   :           1
 
 
     Using Voronoi cells
     Adding the potential well
        Amplitude [Ry a.u.] : -3.3428E-01
        Fragment start :           1
        Fragment end   :           1
 
     E field correction :    4.00507364746637       Ry
     #e's   in well     :    11.9813694585221       electrons
     Numerical error    :    1.863054147790777E-002 electrons
 
     -----------------------------------------------
 
                      SCF converged but...
 
     electron localization condition NOT satisfied
     restarting scf with different applied potential
 
     New field Amp      :  -0.340502840873162       Ry
     charge density from previous step
 
     Using Voronoi cells
     Adding the potential well
        Amplitude [Ry a.u.] : -3.4050E-01
        Fragment start :           1
        Fragment end   :           1
 

     total cpu time spent up to now is       34.6 secs

     per-process dynamical memory:    45.9 Mb

     Self-consistent Calculation

     iteration #  1     ecut=    60.00 Ry     beta=0.30
     Davidson diagonalization with overlap
     ethr =  2.42E-10,  avg # of iterations =  4.5
 
     Magnetic moment per site:
     atom:    1    charge:   11.8186    magn:    0.0153    constr:    0.0000
     atom:    2    charge:   10.9664    magn:    0.9462    constr:    0.0000

     total cpu time spent up to now is       36.4 secs

     The total energy is the sum of the following terms:

     one-electron contribution =    -312.47740308 Ry
     hartree contribution      =     165.36272144 Ry
     xc contribution           =     -32.44482862 Ry
     ewald contribution        =     -44.70331250 Ry

     total energy              =    -224.26162602 Ry
     Harris-Foulkes estimate   =    -224.26162656 Ry
     estimated scf accuracy    <       0.00000161 Ry

     total magnetization       =     1.00 Bohr mag/cell
     absolute magnetization    =     1.02 Bohr mag/cell

     iteration #  2     ecut=    60.00 Ry     beta=0.30
     Davidson diagonalization with overlap
     ethr =  6.98E-09,  avg # of iterations =  1.5
 
     Magnetic moment per site:
     atom:    1    charge:   11.8193    magn:    0.0146    constr:    0.0000
     atom:    2    charge:   10.9657    magn:    0.9469    constr:    0.0000

     total cpu time spent up to now is       37.8 secs

     The total energy is the sum of the following terms:

     one-electron contribution =    -312.47634668 Ry
     hartree contribution      =     165.36287268 Ry
     xc contribution           =     -32.44488679 Ry
     ewald contribution        =     -44.70331250 Ry

     total energy              =    -224.26162580 Ry
     Harris-Foulkes estimate   =    -224.26162607 Ry
     estimated scf accuracy    <       0.00000056 Ry

     total magnetization       =     1.00 Bohr mag/cell
     absolute magnetization    =     1.02 Bohr mag/cell

     iteration #  3     ecut=    60.00 Ry     beta=0.30
     Davidson diagonalization with overlap
     ethr =  2.45E-09,  avg # of iterations =  2.0
 
     Magnetic moment per site:
     atom:    1    charge:   11.8195    magn:    0.0144    constr:    0.0000
     atom:    2    charge:   10.9655    magn:    0.9471    constr:    0.0000

     total cpu time spent up to now is       39.2 secs

     The total energy is the sum of the following terms:

     one-electron contribution =    -312.47544532 Ry
     hartree contribution      =     165.36234637 Ry
     xc contribution           =     -32.44486214 Ry
     ewald contribution        =     -44.70331250 Ry

     total energy              =    -224.26162587 Ry
     Harris-Foulkes estimate   =    -224.26162588 Ry
     estimated scf accuracy    <       0.00000004 Ry

     total magnetization       =     1.00 Bohr mag/cell
     absolute magnetization    =     1.02 Bohr mag/cell

     iteration #  4     ecut=    60.00 Ry     beta=0.30
     Davidson diagonalization with overlap
     ethr =  1.52E-10,  avg # of iterations =  2.0
 
     Magnetic moment per site:
     atom:    1    charge:   11.8195    magn:    0.0143    constr:    0.0000
     atom:    2    charge:   10.9655    magn:    0.9471    constr:    0.0000

     total cpu time spent up to now is       40.5 secs

     End of self-consistent calculation

 ------ SPIN UP ------------


          k = 0.0000 0.0000 0.0000 ( 26462 PWs)   bands (ev):

   -15.2554 -15.2549 -15.2541 -15.2541 -15.2539 -14.2029 -14.1900 -14.1900
   -14.1623 -14.1614 -10.2657  -9.9956

     occupation numbers 
     1.0000   1.0000   1.0000   1.0000   1.0000   1.0000   1.0000   1.0000
     1.0000   1.0000   1.0000   1.0000

 ------ SPIN DOWN ----------


          k = 0.0000 0.0000 0.0000 ( 26462 PWs)   bands (ev):

   -15.0058 -15.0047 -15.0045 -15.0045 -15.0039 -14.1988 -14.1864 -14.1864
   -14.1594 -14.1586 -10.1685  -8.9110

     occupation numbers 
     1.0000   1.0000   1.0000   1.0000   1.0000   1.0000   1.0000   1.0000
     1.0000   1.0000   1.0000   0.0000

     highest occupied level (ev):    -9.9956

     The total energy is the sum of the following terms:

     one-electron contribution =    -312.47589493 Ry
     hartree contribution      =     165.36250035 Ry
     xc contribution           =     -32.44491880 Ry
     ewald contribution        =     -44.70331250 Ry

!    total energy              =    -224.26162587 Ry
     Harris-Foulkes estimate   =    -224.26162587 Ry
     estimated scf accuracy    <          2.3E-09 Ry

     The total energy is the sum of the following terms:

     one-electron contribution =    -312.47589493 Ry
     hartree contribution      =     165.36250035 Ry
     xc contribution           =     -32.44491880 Ry
     ewald contribution        =     -44.70331250 Ry
     electric field correction =       0.00000000 Ry

     total magnetization       =     1.00 Bohr mag/cell
     absolute magnetization    =     1.02 Bohr mag/cell

     convergence has been achieved in   4 iterations
 
     Using Voronoi cells
     Adding the potential well
        Amplitude [Ry a.u.] : -3.4050E-01
        Fragment start :           1
        Fragment end   :           1
 
 
     Using Voronoi cells
     Adding the potential well
        Amplitude [Ry a.u.] : -3.4050E-01
        Fragment start :           1
        Fragment end   :           1
 
     E field correction :    4.08024686359957       Ry
     #e's   in well     :    11.9830038807799       electrons
     Numerical error    :    1.699611922014554E-002 electrons
 
     -----------------------------------------------
 
                      SCF converged but...
 
     electron localization condition NOT satisfied
     restarting scf with different applied potential
 
     New field Amp      :  -0.346290067751441       Ry
     charge density from previous step
 
     Using Voronoi cells
     Adding the potential well
        Amplitude [Ry a.u.] : -3.4629E-01
        Fragment start :           1
        Fragment end   :           1
 

     total cpu time spent up to now is       41.3 secs

     per-process dynamical memory:    45.9 Mb

     Self-consistent Calculation

     iteration #  1     ecut=    60.00 Ry     beta=0.30
     Davidson diagonalization with overlap
     ethr =  1.52E-10,  avg # of iterations =  4.5
 
     Magnetic moment per site:
     atom:    1    charge:   11.8200    magn:    0.0139    constr:    0.0000
     atom:    2    charge:   10.9651    magn:    0.9475    constr:    0.0000

     total cpu time spent up to now is       43.0 secs

     The total energy is the sum of the following terms:

     one-electron contribution =    -312.54676433 Ry
     hartree contribution      =     165.36303699 Ry
     xc contribution           =     -32.44500038 Ry
     ewald contribution        =     -44.70331250 Ry

     total energy              =    -224.33097826 Ry
     Harris-Foulkes estimate   =    -224.33097860 Ry
     estimated scf accuracy    <       0.00000103 Ry

     total magnetization       =     1.00 Bohr mag/cell
     absolute magnetization    =     1.02 Bohr mag/cell

     iteration #  2     ecut=    60.00 Ry     beta=0.30
     Davidson diagonalization with overlap
     ethr =  4.50E-09,  avg # of iterations =  1.5
 
     Magnetic moment per site:
     atom:    1    charge:   11.8206    magn:    0.0133    constr:    0.0000
     atom:    2    charge:   10.9645    magn:    0.9480    constr:    0.0000

     total cpu time spent up to now is       44.4 secs

     The total energy is the sum of the following terms:

     one-electron contribution =    -312.54589995 Ry
     hartree contribution      =     165.36322234 Ry
     xc contribution           =     -32.44505324 Ry
     ewald contribution        =     -44.70331250 Ry

     total energy              =    -224.33097811 Ry
     Harris-Foulkes estimate   =    -224.33097829 Ry
     estimated scf accuracy    <       0.00000037 Ry

     total magnetization       =     1.00 Bohr mag/cell
     absolute magnetization    =     1.02 Bohr mag/cell

     iteration #  3     ecut=    60.00 Ry     beta=0.30
     Davidson diagonalization with overlap
     ethr =  1.61E-09,  avg # of iterations =  2.0
 
     Magnetic moment per site:
     atom:    1    charge:   11.8207    magn:    0.0131    constr:    0.0000
     atom:    2    charge:   10.9644    magn:    0.9481    constr:    0.0000

     total cpu time spent up to now is       45.8 secs

     The total energy is the sum of the following terms:

     one-electron contribution =    -312.54513462 Ry
     hartree contribution      =     165.36279251 Ry
     xc contribution           =     -32.44503239 Ry
     ewald contribution        =     -44.70331250 Ry

     total energy              =    -224.33097815 Ry
     Harris-Foulkes estimate   =    -224.33097816 Ry
     estimated scf accuracy    <       0.00000002 Ry

     total magnetization       =     1.00 Bohr mag/cell
     absolute magnetization    =     1.02 Bohr mag/cell

     iteration #  4     ecut=    60.00 Ry     beta=0.30
     Davidson diagonalization with overlap
     ethr =  1.02E-10,  avg # of iterations =  2.0
 
     Magnetic moment per site:
     atom:    1    charge:   11.8208    magn:    0.0130    constr:    0.0000
     atom:    2    charge:   10.9643    magn:    0.9482    constr:    0.0000

     total cpu time spent up to now is       47.2 secs

     End of self-consistent calculation

 ------ SPIN UP ------------


          k = 0.0000 0.0000 0.0000 ( 26462 PWs)   bands (ev):

   -15.2634 -15.2631 -15.2622 -15.2622 -15.2620 -14.2735 -14.2606 -14.2606
   -14.2329 -14.2320 -10.3175 -10.0228

     occupation numbers 
     1.0000   1.0000   1.0000   1.0000   1.0000   1.0000   1.0000   1.0000
     1.0000   1.0000   1.0000   1.0000

 ------ SPIN DOWN ----------


          k = 0.0000 0.0000 0.0000 ( 26462 PWs)   bands (ev):

   -15.0136 -15.0125 -15.0123 -15.0123 -15.0117 -14.2697 -14.2573 -14.2573
   -14.2303 -14.2294 -10.2411  -8.9152

     occupation numbers 
     1.0000   1.0000   1.0000   1.0000   1.0000   1.0000   1.0000   1.0000
     1.0000   1.0000   1.0000   0.0000

     highest occupied level (ev):   -10.0228

     The total energy is the sum of the following terms:

     one-electron contribution =    -312.54550286 Ry
     hartree contribution      =     165.36291541 Ry
     xc contribution           =     -32.44507821 Ry
     ewald contribution        =     -44.70331250 Ry

!    total energy              =    -224.33097815 Ry
     Harris-Foulkes estimate   =    -224.33097815 Ry
     estimated scf accuracy    <          1.6E-09 Ry

     The total energy is the sum of the following terms:

     one-electron contribution =    -312.54550286 Ry
     hartree contribution      =     165.36291541 Ry
     xc contribution           =     -32.44507821 Ry
     ewald contribution        =     -44.70331250 Ry
     electric field correction =       0.00000000 Ry

     total magnetization       =     1.00 Bohr mag/cell
     absolute magnetization    =     1.02 Bohr mag/cell

     convergence has been achieved in   4 iterations
 
     Using Voronoi cells
     Adding the potential well
        Amplitude [Ry a.u.] : -3.4629E-01
        Fragment start :           1
        Fragment end   :           1
 
 
     Using Voronoi cells
     Adding the potential well
        Amplitude [Ry a.u.] : -3.4629E-01
        Fragment start :           1
        Fragment end   :           1
 
     E field correction :    4.15005314701106       Ry
     #e's   in well     :    11.9843262440604       electrons
     Numerical error    :    1.567375593959675E-002 electrons
 
     -----------------------------------------------
 
                      SCF converged but...
 
     electron localization condition NOT satisfied
     restarting scf with different applied potential
 
     New field Amp      :  -0.351717733757683       Ry
     charge density from previous step
 
     Using Voronoi cells
     Adding the potential well
        Amplitude [Ry a.u.] : -3.5172E-01
        Fragment start :           1
        Fragment end   :           1
 

     total cpu time spent up to now is       48.0 secs

     per-process dynamical memory:    45.9 Mb

     Self-consistent Calculation

     iteration #  1     ecut=    60.00 Ry     beta=0.30
     Davidson diagonalization with overlap
     ethr =  1.02E-10,  avg # of iterations =  4.5
 
     Magnetic moment per site:
     atom:    1    charge:   11.8211    magn:    0.0127    constr:    0.0000
     atom:    2    charge:   10.9640    magn:    0.9485    constr:    0.0000

     total cpu time spent up to now is       49.9 secs

     The total energy is the sum of the following terms:

     one-electron contribution =    -312.61190916 Ry
     hartree contribution      =     165.36339277 Ry
     xc contribution           =     -32.44514871 Ry
     ewald contribution        =     -44.70331250 Ry

     total energy              =    -224.39602818 Ry
     Harris-Foulkes estimate   =    -224.39602841 Ry
     estimated scf accuracy    <       0.00000070 Ry

     total magnetization       =     1.00 Bohr mag/cell
     absolute magnetization    =     1.02 Bohr mag/cell

     iteration #  2     ecut=    60.00 Ry     beta=0.30
     Davidson diagonalization with overlap
     ethr =  3.05E-09,  avg # of iterations =  1.5
 
     Magnetic moment per site:
     atom:    1    charge:   11.8217    magn:    0.0122    constr:    0.0000
     atom:    2    charge:   10.9635    magn:    0.9489    constr:    0.0000

     total cpu time spent up to now is       51.3 secs

     The total energy is the sum of the following terms:

     one-electron contribution =    -312.61118559 Ry
     hartree contribution      =     165.36359341 Ry
     xc contribution           =     -32.44519661 Ry
     ewald contribution        =     -44.70331250 Ry

     total energy              =    -224.39602808 Ry
     Harris-Foulkes estimate   =    -224.39602820 Ry
     estimated scf accuracy    <       0.00000026 Ry

     total magnetization       =     1.00 Bohr mag/cell
     absolute magnetization    =     1.02 Bohr mag/cell

     iteration #  3     ecut=    60.00 Ry     beta=0.30
     Davidson diagonalization with overlap
     ethr =  1.11E-09,  avg # of iterations =  2.0
 
     Magnetic moment per site:
     atom:    1    charge:   11.8218    magn:    0.0121    constr:    0.0000
     atom:    2    charge:   10.9634    magn:    0.9490    constr:    0.0000

     total cpu time spent up to now is       52.8 secs

     The total energy is the sum of the following terms:

     one-electron contribution =    -312.61052814 Ry
     hartree contribution      =     165.36323708 Ry
     xc contribution           =     -32.44517894 Ry
     ewald contribution        =     -44.70331250 Ry

     total energy              =    -224.39602811 Ry
     Harris-Foulkes estimate   =    -224.39602812 Ry
     estimated scf accuracy    <       0.00000002 Ry

     total magnetization       =     1.00 Bohr mag/cell
     absolute magnetization    =     1.02 Bohr mag/cell

     iteration #  4     ecut=    60.00 Ry     beta=0.30
     Davidson diagonalization with overlap
     ethr =  7.08E-11,  avg # of iterations =  2.0
 
     Magnetic moment per site:
     atom:    1    charge:   11.8218    magn:    0.0120    constr:    0.0000
     atom:    2    charge:   10.9634    magn:    0.9491    constr:    0.0000

     total cpu time spent up to now is       54.2 secs

     End of self-consistent calculation

 ------ SPIN UP ------------


          k = 0.0000 0.0000 0.0000 ( 26462 PWs)   bands (ev):

   -15.2701 -15.2698 -15.2689 -15.2689 -15.2687 -14.3405 -14.3277 -14.3277
   -14.2999 -14.2991 -10.3716 -10.0427

     occupation numbers 
     1.0000   1.0000   1.0000   1.0000   1.0000   1.0000   1.0000   1.0000
     1.0000   1.0000   1.0000   1.0000

 ------ SPIN DOWN ----------


          k = 0.0000 0.0000 0.0000 ( 26462 PWs)   bands (ev):

   -15.0200 -15.0189 -15.0188 -15.0188 -15.0181 -14.3370 -14.3245 -14.3245
   -14.2975 -14.2967 -10.3097  -8.9187

     occupation numbers 
     1.0000   1.0000   1.0000   1.0000   1.0000   1.0000   1.0000   1.0000
     1.0000   1.0000   1.0000   0.0000

     highest occupied level (ev):   -10.0427

     The total energy is the sum of the following terms:

     one-electron contribution =    -312.61083157 Ry
     hartree contribution      =     165.36333201 Ry
     xc contribution           =     -32.44521606 Ry
     ewald contribution        =     -44.70331250 Ry

!    total energy              =    -224.39602811 Ry
     Harris-Foulkes estimate   =    -224.39602812 Ry
     estimated scf accuracy    <          1.1E-09 Ry

     The total energy is the sum of the following terms:

     one-electron contribution =    -312.61083157 Ry
     hartree contribution      =     165.36333201 Ry
     xc contribution           =     -32.44521606 Ry
     ewald contribution        =     -44.70331250 Ry
     electric field correction =       0.00000000 Ry

     total magnetization       =     1.00 Bohr mag/cell
     absolute magnetization    =     1.02 Bohr mag/cell

     convergence has been achieved in   4 iterations
 
     Using Voronoi cells
     Adding the potential well
        Amplitude [Ry a.u.] : -3.5172E-01
        Fragment start :           1
        Fragment end   :           1
 
 
     Using Voronoi cells
     Adding the potential well
        Amplitude [Ry a.u.] : -3.5172E-01
        Fragment start :           1
        Fragment end   :           1
 
     E field correction :    4.21548484414809       Ry
     #e's   in well     :    11.9854202377308       electrons
     Numerical error    :    1.457976226919300E-002 electrons
 
     -----------------------------------------------
 
                      SCF converged but...
 
     electron localization condition NOT satisfied
     restarting scf with different applied potential
 
     New field Amp      :  -0.356845694701729       Ry
     charge density from previous step
 
     Using Voronoi cells
     Adding the potential well
        Amplitude [Ry a.u.] : -3.5685E-01
        Fragment start :           1
        Fragment end   :           1
 

     total cpu time spent up to now is       55.0 secs

     per-process dynamical memory:    45.9 Mb

     Self-consistent Calculation

     iteration #  1     ecut=    60.00 Ry     beta=0.30
     Davidson diagonalization with overlap
     ethr =  7.08E-11,  avg # of iterations =  4.5
 
     Magnetic moment per site:
     atom:    1    charge:   11.8221    magn:    0.0118    constr:    0.0000
     atom:    2    charge:   10.9631    magn:    0.9493    constr:    0.0000

     total cpu time spent up to now is       56.8 secs

     The total energy is the sum of the following terms:

     one-electron contribution =    -312.67352570 Ry
     hartree contribution      =     165.36376351 Ry
     xc contribution           =     -32.44527831 Ry
     ewald contribution        =     -44.70331250 Ry

     total energy              =    -224.45749134 Ry
     Harris-Foulkes estimate   =    -224.45749151 Ry
     estimated scf accuracy    <       0.00000050 Ry

     total magnetization       =     1.00 Bohr mag/cell
     absolute magnetization    =     1.02 Bohr mag/cell

     iteration #  2     ecut=    60.00 Ry     beta=0.30
     Davidson diagonalization with overlap
     ethr =  2.16E-09,  avg # of iterations =  1.5
 
     Magnetic moment per site:
     atom:    1    charge:   11.8226    magn:    0.0114    constr:    0.0000
     atom:    2    charge:   10.9627    magn:    0.9496    constr:    0.0000

     total cpu time spent up to now is       58.2 secs

     The total energy is the sum of the following terms:

     one-electron contribution =    -312.67290550 Ry
     hartree contribution      =     165.36397169 Ry
     xc contribution           =     -32.44532211 Ry
     ewald contribution        =     -44.70331250 Ry

     total energy              =    -224.45749127 Ry
     Harris-Foulkes estimate   =    -224.45749136 Ry
     estimated scf accuracy    <       0.00000018 Ry

     total magnetization       =     1.00 Bohr mag/cell
     absolute magnetization    =     1.02 Bohr mag/cell

     iteration #  3     ecut=    60.00 Ry     beta=0.30
     Davidson diagonalization with overlap
     ethr =  7.95E-10,  avg # of iterations =  2.0
 
     Magnetic moment per site:
     atom:    1    charge:   11.8227    magn:    0.0113    constr:    0.0000
     atom:    2    charge:   10.9626    magn:    0.9497    constr:    0.0000

     total cpu time spent up to now is       59.6 secs

     The total energy is the sum of the following terms:

     one-electron contribution =    -312.67232593 Ry
     hartree contribution      =     165.36366576 Ry
     xc contribution           =     -32.44530615 Ry
     ewald contribution        =     -44.70331250 Ry

     total energy              =    -224.45749130 Ry
     Harris-Foulkes estimate   =    -224.45749130 Ry
     estimated scf accuracy    <       0.00000001 Ry

     total magnetization       =     1.00 Bohr mag/cell
     absolute magnetization    =     1.02 Bohr mag/cell

     iteration #  4     ecut=    60.00 Ry     beta=0.30
     Davidson diagonalization with overlap
     ethr =  5.13E-11,  avg # of iterations =  2.0
 
     Magnetic moment per site:
     atom:    1    charge:   11.8227    magn:    0.0112    constr:    0.0000
     atom:    2    charge:   10.9626    magn:    0.9498    constr:    0.0000

     total cpu time spent up to now is       61.0 secs

     End of self-consistent calculation

 ------ SPIN UP ------------


          k = 0.0000 0.0000 0.0000 ( 26462 PWs)   bands (ev):

   -15.2757 -15.2754 -15.2745 -15.2745 -15.2744 -14.4045 -14.3916 -14.3916
   -14.3639 -14.3630 -10.4265 -10.0577

     occupation numbers 
     1.0000   1.0000   1.0000   1.0000   1.0000   1.0000   1.0000   1.0000
     1.0000   1.0000   1.0000   1.0000

 ------ SPIN DOWN ----------


          k = 0.0000 0.0000 0.0000 ( 26462 PWs)   bands (ev):

   -15.0255 -15.0244 -15.0242 -15.0242 -15.0236 -14.4012 -14.3887 -14.3887
   -14.3616 -14.3608 -10.3750  -8.9217

     occupation numbers 
     1.0000   1.0000   1.0000   1.0000   1.0000   1.0000   1.0000   1.0000
     1.0000   1.0000   1.0000   0.0000

     highest occupied level (ev):   -10.0577

     The total energy is the sum of the following terms:

     one-electron contribution =    -312.67258764 Ry
     hartree contribution      =     165.36374652 Ry
     xc contribution           =     -32.44533768 Ry
     ewald contribution        =     -44.70331250 Ry

!    total energy              =    -224.45749130 Ry
     Harris-Foulkes estimate   =    -224.45749130 Ry
     estimated scf accuracy    <          8.2E-10 Ry

     The total energy is the sum of the following terms:

     one-electron contribution =    -312.67258764 Ry
     hartree contribution      =     165.36374652 Ry
     xc contribution           =     -32.44533768 Ry
     ewald contribution        =     -44.70331250 Ry
     electric field correction =       0.00000000 Ry

     total magnetization       =     1.00 Bohr mag/cell
     absolute magnetization    =     1.02 Bohr mag/cell

     convergence has been achieved in   4 iterations
 
     Using Voronoi cells
     Adding the potential well
        Amplitude [Ry a.u.] : -3.5685E-01
        Fragment start :           1
        Fragment end   :           1
 
 
     Using Voronoi cells
     Adding the potential well
        Amplitude [Ry a.u.] : -3.5685E-01
        Fragment start :           1
        Fragment end   :           1
 
     E field correction :    4.27727470065909       Ry
     #e's   in well     :    11.9863424560416       electrons
     Numerical error    :    1.365754395836838E-002 electrons
 
     -----------------------------------------------
 
                      SCF converged but...
 
     electron localization condition NOT satisfied
     restarting scf with different applied potential
 
     New field Amp      :  -0.361719330463473       Ry
     charge density from previous step
 
     Using Voronoi cells
     Adding the potential well
        Amplitude [Ry a.u.] : -3.6172E-01
        Fragment start :           1
        Fragment end   :           1
 

     total cpu time spent up to now is       61.9 secs

     per-process dynamical memory:    45.9 Mb

     Self-consistent Calculation

     iteration #  1     ecut=    60.00 Ry     beta=0.30
     Davidson diagonalization with overlap
     ethr =  5.13E-11,  avg # of iterations =  4.5
 
     Magnetic moment per site:
     atom:    1    charge:   11.8230    magn:    0.0110    constr:    0.0000
     atom:    2    charge:   10.9623    magn:    0.9500    constr:    0.0000

     total cpu time spent up to now is       63.7 secs

     The total energy is the sum of the following terms:

     one-electron contribution =    -312.73212549 Ry
     hartree contribution      =     165.36413736 Ry
     xc contribution           =     -32.44539290 Ry
     ewald contribution        =     -44.70331250 Ry

     total energy              =    -224.51591036 Ry
     Harris-Foulkes estimate   =    -224.51591048 Ry
     estimated scf accuracy    <       0.00000036 Ry

     total magnetization       =     1.00 Bohr mag/cell
     absolute magnetization    =     1.02 Bohr mag/cell

     iteration #  2     ecut=    60.00 Ry     beta=0.30
     Davidson diagonalization with overlap
     ethr =  1.58E-09,  avg # of iterations =  1.5
 
     Magnetic moment per site:
     atom:    1    charge:   11.8233    magn:    0.0106    constr:    0.0000
     atom:    2    charge:   10.9620    magn:    0.9503    constr:    0.0000

     total cpu time spent up to now is       65.1 secs

     The total energy is the sum of the following terms:

     one-electron contribution =    -312.73158522 Ry
     hartree contribution      =     165.36434318 Ry
     xc contribution           =     -32.44543257 Ry
     ewald contribution        =     -44.70331250 Ry

     total energy              =    -224.51591031 Ry
     Harris-Foulkes estimate   =    -224.51591037 Ry
     estimated scf accuracy    <       0.00000014 Ry

     total magnetization       =     1.00 Bohr mag/cell
     absolute magnetization    =     1.02 Bohr mag/cell

     iteration #  3     ecut=    60.00 Ry     beta=0.30
     Davidson diagonalization with overlap
     ethr =  5.87E-10,  avg # of iterations =  2.0
 
     Magnetic moment per site:
     atom:    1    charge:   11.8234    magn:    0.0105    constr:    0.0000
     atom:    2    charge:   10.9619    magn:    0.9504    constr:    0.0000

     total cpu time spent up to now is       66.4 secs

     End of self-consistent calculation

 ------ SPIN UP ------------


          k = 0.0000 0.0000 0.0000 ( 26462 PWs)   bands (ev):

   -15.2804 -15.2802 -15.2792 -15.2792 -15.2791 -14.4655 -14.4527 -14.4527
   -14.4249 -14.4241 -10.4814 -10.0690

     occupation numbers 
     1.0000   1.0000   1.0000   1.0000   1.0000   1.0000   1.0000   1.0000
     1.0000   1.0000   1.0000   1.0000

 ------ SPIN DOWN ----------


          k = 0.0000 0.0000 0.0000 ( 26462 PWs)   bands (ev):

   -15.0300 -15.0290 -15.0288 -15.0288 -15.0281 -14.4624 -14.4499 -14.4499
   -14.4228 -14.4220 -10.4374  -8.9243

     occupation numbers 
     1.0000   1.0000   1.0000   1.0000   1.0000   1.0000   1.0000   1.0000
     1.0000   1.0000   1.0000   0.0000

     highest occupied level (ev):   -10.0690

     The total energy is the sum of the following terms:

     one-electron contribution =    -312.73107225 Ry
     hartree contribution      =     165.36388047 Ry
     xc contribution           =     -32.44540606 Ry
     ewald contribution        =     -44.70331250 Ry

!    total energy              =    -224.51591033 Ry
     Harris-Foulkes estimate   =    -224.51591033 Ry
     estimated scf accuracy    <          8.8E-09 Ry

     The total energy is the sum of the following terms:

     one-electron contribution =    -312.73107225 Ry
     hartree contribution      =     165.36388047 Ry
     xc contribution           =     -32.44540606 Ry
     ewald contribution        =     -44.70331250 Ry
     electric field correction =       0.00000000 Ry

     total magnetization       =     1.00 Bohr mag/cell
     absolute magnetization    =     1.02 Bohr mag/cell

     convergence has been achieved in   3 iterations
 
     Using Voronoi cells
     Adding the potential well
        Amplitude [Ry a.u.] : -3.6172E-01
        Fragment start :           1
        Fragment end   :           1
 
 
     Using Voronoi cells
     Adding the potential well
        Amplitude [Ry a.u.] : -3.6172E-01
        Fragment start :           1
        Fragment end   :           1
 
     E field correction :    4.33597749726581       Ry
     #e's   in well     :    11.9871323761159       electrons
     Numerical error    :    1.286762388406437E-002 electrons
 
     -----------------------------------------------
 
                      SCF converged but...
 
     electron localization condition NOT satisfied
     restarting scf with different applied potential
 
     New field Amp      :  -0.366373798759472       Ry
     charge density from previous step
 
     Using Voronoi cells
     Adding the potential well
        Amplitude [Ry a.u.] : -3.6637E-01
        Fragment start :           1
        Fragment end   :           1
 

     total cpu time spent up to now is       67.3 secs

     per-process dynamical memory:    45.9 Mb

     Self-consistent Calculation

     iteration #  1     ecut=    60.00 Ry     beta=0.30
     Davidson diagonalization with overlap
     ethr =  5.87E-10,  avg # of iterations =  3.5
 
     Magnetic moment per site:
     atom:    1    charge:   11.8237    magn:    0.0103    constr:    0.0000
     atom:    2    charge:   10.9617    magn:    0.9505    constr:    0.0000

     total cpu time spent up to now is       69.0 secs

     The total energy is the sum of the following terms:

     one-electron contribution =    -312.78836105 Ry
     hartree contribution      =     165.36440251 Ry
     xc contribution           =     -32.44548008 Ry
     ewald contribution        =     -44.70331250 Ry

     total energy              =    -224.57170571 Ry
     Harris-Foulkes estimate   =    -224.57170581 Ry
     estimated scf accuracy    <       0.00000029 Ry

     total magnetization       =     1.00 Bohr mag/cell
     absolute magnetization    =     1.02 Bohr mag/cell

     iteration #  2     ecut=    60.00 Ry     beta=0.30
     Davidson diagonalization with overlap
     ethr =  1.25E-09,  avg # of iterations =  1.5
 
     Magnetic moment per site:
     atom:    1    charge:   11.8240    magn:    0.0100    constr:    0.0000
     atom:    2    charge:   10.9614    magn:    0.9508    constr:    0.0000

     total cpu time spent up to now is       70.3 secs

     The total energy is the sum of the following terms:

     one-electron contribution =    -312.78773868 Ry
     hartree contribution      =     165.36473399 Ry
     xc contribution           =     -32.44553499 Ry
     ewald contribution        =     -44.70331250 Ry

     total energy              =    -224.57170567 Ry
     Harris-Foulkes estimate   =    -224.57170572 Ry
     estimated scf accuracy    <       0.00000010 Ry

     total magnetization       =     1.00 Bohr mag/cell
     absolute magnetization    =     1.02 Bohr mag/cell

     iteration #  3     ecut=    60.00 Ry     beta=0.30
     Davidson diagonalization with overlap
     ethr =  4.48E-10,  avg # of iterations =  2.0
 
     Magnetic moment per site:
     atom:    1    charge:   11.8241    magn:    0.0099    constr:    0.0000
     atom:    2    charge:   10.9613    magn:    0.9509    constr:    0.0000

     total cpu time spent up to now is       71.7 secs

     End of self-consistent calculation

 ------ SPIN UP ------------


          k = 0.0000 0.0000 0.0000 ( 26462 PWs)   bands (ev):

   -15.2845 -15.2843 -15.2833 -15.2833 -15.2832 -14.5245 -14.5117 -14.5117
   -14.4839 -14.4831 -10.5356 -10.0782

     occupation numbers 
     1.0000   1.0000   1.0000   1.0000   1.0000   1.0000   1.0000   1.0000
     1.0000   1.0000   1.0000   1.0000

 ------ SPIN DOWN ----------


          k = 0.0000 0.0000 0.0000 ( 26462 PWs)   bands (ev):

   -15.0340 -15.0329 -15.0328 -15.0328 -15.0321 -14.5215 -14.5090 -14.5090
   -14.4819 -14.4811 -10.4973  -8.9266

     occupation numbers 
     1.0000   1.0000   1.0000   1.0000   1.0000   1.0000   1.0000   1.0000
     1.0000   1.0000   1.0000   0.0000

     highest occupied level (ev):   -10.0782

     The total energy is the sum of the following terms:

     one-electron contribution =    -312.78716785 Ry
     hartree contribution      =     165.36427712 Ry
     xc contribution           =     -32.44550245 Ry
     ewald contribution        =     -44.70331250 Ry

!    total energy              =    -224.57170568 Ry
     Harris-Foulkes estimate   =    -224.57170568 Ry
     estimated scf accuracy    <          8.1E-09 Ry

     The total energy is the sum of the following terms:

     one-electron contribution =    -312.78716785 Ry
     hartree contribution      =     165.36427712 Ry
     xc contribution           =     -32.44550245 Ry
     ewald contribution        =     -44.70331250 Ry
     electric field correction =       0.00000000 Ry

     total magnetization       =     1.00 Bohr mag/cell
     absolute magnetization    =     1.02 Bohr mag/cell

     convergence has been achieved in   3 iterations
 
     Using Voronoi cells
     Adding the potential well
        Amplitude [Ry a.u.] : -3.6637E-01
        Fragment start :           1
        Fragment end   :           1
 
 
     Using Voronoi cells
     Adding the potential well
        Amplitude [Ry a.u.] : -3.6637E-01
        Fragment start :           1
        Fragment end   :           1
 
     E field correction :    4.39202272189663       Ry
     #e's   in well     :    11.9878188253851       electrons
     Numerical error    :    1.218117461491097E-002 electrons
 
     -----------------------------------------------
 
                      SCF converged but...
 
     electron localization condition NOT satisfied
     restarting scf with different applied potential
 
     New field Amp      :  -0.370836661976490       Ry
     charge density from previous step
 
     Using Voronoi cells
     Adding the potential well
        Amplitude [Ry a.u.] : -3.7084E-01
        Fragment start :           1
        Fragment end   :           1
 

     total cpu time spent up to now is       72.5 secs

     per-process dynamical memory:    45.9 Mb

     Self-consistent Calculation

     iteration #  1     ecut=    60.00 Ry     beta=0.30
     Davidson diagonalization with overlap
     ethr =  4.48E-10,  avg # of iterations =  3.5
 
     Magnetic moment per site:
     atom:    1    charge:   11.8243    magn:    0.0097    constr:    0.0000
     atom:    2    charge:   10.9611    magn:    0.9510    constr:    0.0000

     total cpu time spent up to now is       74.2 secs

     The total energy is the sum of the following terms:

     one-electron contribution =    -312.84205727 Ry
     hartree contribution      =     165.36476221 Ry
     xc contribution           =     -32.44557114 Ry
     ewald contribution        =     -44.70331250 Ry

     total energy              =    -224.62520706 Ry
     Harris-Foulkes estimate   =    -224.62520713 Ry
     estimated scf accuracy    <       0.00000022 Ry

     total magnetization       =     1.00 Bohr mag/cell
     absolute magnetization    =     1.02 Bohr mag/cell

     iteration #  2     ecut=    60.00 Ry     beta=0.30
     Davidson diagonalization with overlap
     ethr =  9.61E-10,  avg # of iterations =  1.5
 
     Magnetic moment per site:
     atom:    1    charge:   11.8246    magn:    0.0095    constr:    0.0000
     atom:    2    charge:   10.9609    magn:    0.9512    constr:    0.0000

     total cpu time spent up to now is       75.5 secs

     The total energy is the sum of the following terms:

     one-electron contribution =    -312.84148085 Ry
     hartree contribution      =     165.36507312 Ry
     xc contribution           =     -32.44562250 Ry
     ewald contribution        =     -44.70331250 Ry

     total energy              =    -224.62520703 Ry
     Harris-Foulkes estimate   =    -224.62520707 Ry
     estimated scf accuracy    <       0.00000008 Ry

     total magnetization       =     1.00 Bohr mag/cell
     absolute magnetization    =     1.02 Bohr mag/cell

     iteration #  3     ecut=    60.00 Ry     beta=0.30
     Davidson diagonalization with overlap
     ethr =  3.47E-10,  avg # of iterations =  2.0
 
     Magnetic moment per site:
     atom:    1    charge:   11.8247    magn:    0.0094    constr:    0.0000
     atom:    2    charge:   10.9608    magn:    0.9513    constr:    0.0000

     total cpu time spent up to now is       76.9 secs

     End of self-consistent calculation

 ------ SPIN UP ------------


          k = 0.0000 0.0000 0.0000 ( 26462 PWs)   bands (ev):

   -15.2883 -15.2880 -15.2871 -15.2871 -15.2870 -14.5814 -14.5685 -14.5685
   -14.5407 -14.5399 -10.5888 -10.0858

     occupation numbers 
     1.0000   1.0000   1.0000   1.0000   1.0000   1.0000   1.0000   1.0000
     1.0000   1.0000   1.0000   1.0000

 ------ SPIN DOWN ----------


          k = 0.0000 0.0000 0.0000 ( 26462 PWs)   bands (ev):

   -15.0376 -15.0365 -15.0364 -15.0364 -15.0357 -14.5784 -14.5659 -14.5659
   -14.5388 -14.5380 -10.5549  -8.9288

     occupation numbers 
     1.0000   1.0000   1.0000   1.0000   1.0000   1.0000   1.0000   1.0000
     1.0000   1.0000   1.0000   0.0000

     highest occupied level (ev):   -10.0858

     The total energy is the sum of the following terms:

     one-electron contribution =    -312.84097527 Ry
     hartree contribution      =     165.36467396 Ry
     xc contribution           =     -32.44559324 Ry
     ewald contribution        =     -44.70331250 Ry

!    total energy              =    -224.62520704 Ry
     Harris-Foulkes estimate   =    -224.62520704 Ry
     estimated scf accuracy    <          6.3E-09 Ry

     The total energy is the sum of the following terms:

     one-electron contribution =    -312.84097527 Ry
     hartree contribution      =     165.36467396 Ry
     xc contribution           =     -32.44559324 Ry
     ewald contribution        =     -44.70331250 Ry
     electric field correction =       0.00000000 Ry

     total magnetization       =     1.00 Bohr mag/cell
     absolute magnetization    =     1.02 Bohr mag/cell

     convergence has been achieved in   3 iterations
 
     Using Voronoi cells
     Adding the potential well
        Amplitude [Ry a.u.] : -3.7084E-01
        Fragment start :           1
        Fragment end   :           1
 
 
     Using Voronoi cells
     Adding the potential well
        Amplitude [Ry a.u.] : -3.7084E-01
        Fragment start :           1
        Fragment end   :           1
 
     E field correction :    4.44574580839738       Ry
     #e's   in well     :    11.9884204131879       electrons
     Numerical error    :    1.157958681211113E-002 electrons
 
     -----------------------------------------------
 
                      SCF converged but...
 
     electron localization condition NOT satisfied
     restarting scf with different applied potential
 
     New field Amp      :  -0.375130797296960       Ry
     charge density from previous step
 
     Using Voronoi cells
     Adding the potential well
        Amplitude [Ry a.u.] : -3.7513E-01
        Fragment start :           1
        Fragment end   :           1
 

     total cpu time spent up to now is       77.7 secs

     per-process dynamical memory:    45.9 Mb

     Self-consistent Calculation

     iteration #  1     ecut=    60.00 Ry     beta=0.30
     Davidson diagonalization with overlap
     ethr =  3.47E-10,  avg # of iterations =  4.0
 
     Magnetic moment per site:
     atom:    1    charge:   11.8249    magn:    0.0092    constr:    0.0000
     atom:    2    charge:   10.9606    magn:    0.9514    constr:    0.0000

     total cpu time spent up to now is       79.5 secs

     The total energy is the sum of the following terms:

     one-electron contribution =    -312.89374219 Ry
     hartree contribution      =     165.36512233 Ry
     xc contribution           =     -32.44565586 Ry
     ewald contribution        =     -44.70331250 Ry

     total energy              =    -224.67668812 Ry
     Harris-Foulkes estimate   =    -224.67668817 Ry
     estimated scf accuracy    <       0.00000018 Ry

     total magnetization       =     1.00 Bohr mag/cell
     absolute magnetization    =     1.02 Bohr mag/cell

     iteration #  2     ecut=    60.00 Ry     beta=0.30
     Davidson diagonalization with overlap
     ethr =  7.64E-10,  avg # of iterations =  1.5
 
     Magnetic moment per site:
     atom:    1    charge:   11.8251    magn:    0.0090    constr:    0.0000
     atom:    2    charge:   10.9604    magn:    0.9516    constr:    0.0000

     total cpu time spent up to now is       80.9 secs

     The total energy is the sum of the following terms:

     one-electron contribution =    -312.89320553 Ry
     hartree contribution      =     165.36540599 Ry
     xc contribution           =     -32.44570165 Ry
     ewald contribution        =     -44.70331250 Ry

     total energy              =    -224.67668809 Ry
     Harris-Foulkes estimate   =    -224.67668812 Ry
     estimated scf accuracy    <       0.00000006 Ry

     total magnetization       =     1.00 Bohr mag/cell
     absolute magnetization    =     1.02 Bohr mag/cell

     iteration #  3     ecut=    60.00 Ry     beta=0.30
     Davidson diagonalization with overlap
     ethr =  2.76E-10,  avg # of iterations =  2.0
 
     Magnetic moment per site:
     atom:    1    charge:   11.8252    magn:    0.0089    constr:    0.0000
     atom:    2    charge:   10.9603    magn:    0.9517    constr:    0.0000

     total cpu time spent up to now is       82.2 secs

     End of self-consistent calculation

 ------ SPIN UP ------------


          k = 0.0000 0.0000 0.0000 ( 26462 PWs)   bands (ev):

   -15.2915 -15.2913 -15.2903 -15.2903 -15.2902 -14.6363 -14.6234 -14.6234
   -14.5957 -14.5948 -10.6409 -10.0921

     occupation numbers 
     1.0000   1.0000   1.0000   1.0000   1.0000   1.0000   1.0000   1.0000
     1.0000   1.0000   1.0000   1.0000

 ------ SPIN DOWN ----------


          k = 0.0000 0.0000 0.0000 ( 26462 PWs)   bands (ev):

   -15.0408 -15.0397 -15.0397 -15.0397 -15.0389 -14.6335 -14.6209 -14.6209
   -14.5939 -14.5931 -10.6106  -8.9307

     occupation numbers 
     1.0000   1.0000   1.0000   1.0000   1.0000   1.0000   1.0000   1.0000
     1.0000   1.0000   1.0000   0.0000

     highest occupied level (ev):   -10.0921

     The total energy is the sum of the following terms:

     one-electron contribution =    -312.89275294 Ry
     hartree contribution      =     165.36505315 Ry
     xc contribution           =     -32.44567582 Ry
     ewald contribution        =     -44.70331250 Ry

!    total energy              =    -224.67668810 Ry
     Harris-Foulkes estimate   =    -224.67668810 Ry
     estimated scf accuracy    <          5.1E-09 Ry

     The total energy is the sum of the following terms:

     one-electron contribution =    -312.89275294 Ry
     hartree contribution      =     165.36505315 Ry
     xc contribution           =     -32.44567582 Ry
     ewald contribution        =     -44.70331250 Ry
     electric field correction =       0.00000000 Ry

     total magnetization       =     1.00 Bohr mag/cell
     absolute magnetization    =     1.02 Bohr mag/cell

     convergence has been achieved in   3 iterations
 
     Using Voronoi cells
     Adding the potential well
        Amplitude [Ry a.u.] : -3.7513E-01
        Fragment start :           1
        Fragment end   :           1
 
 
     Using Voronoi cells
     Adding the potential well
        Amplitude [Ry a.u.] : -3.7513E-01
        Fragment start :           1
        Fragment end   :           1
 
     E field correction :    4.49742602263171       Ry
     #e's   in well     :    11.9889543994748       electrons
     Numerical error    :    1.104560052520576E-002 electrons
 
     -----------------------------------------------
 
                      SCF converged but...
 
     electron localization condition NOT satisfied
     restarting scf with different applied potential
 
     New field Amp      :  -0.379274342228604       Ry
     charge density from previous step
 
     Using Voronoi cells
     Adding the potential well
        Amplitude [Ry a.u.] : -3.7927E-01
        Fragment start :           1
        Fragment end   :           1
 

     total cpu time spent up to now is       83.2 secs

     per-process dynamical memory:    45.9 Mb

     Self-consistent Calculation

     iteration #  1     ecut=    60.00 Ry     beta=0.30
     Davidson diagonalization with overlap
     ethr =  2.76E-10,  avg # of iterations =  4.5
 
     Magnetic moment per site:
     atom:    1    charge:   11.8254    magn:    0.0088    constr:    0.0000
     atom:    2    charge:   10.9602    magn:    0.9517    constr:    0.0000

     total cpu time spent up to now is       84.9 secs

     The total energy is the sum of the following terms:

     one-electron contribution =    -312.94360555 Ry
     hartree contribution      =     165.36546214 Ry
     xc contribution           =     -32.44573237 Ry
     ewald contribution        =     -44.70331250 Ry

     total energy              =    -224.72636589 Ry
     Harris-Foulkes estimate   =    -224.72636594 Ry
     estimated scf accuracy    <       0.00000014 Ry

     total magnetization       =     1.00 Bohr mag/cell
     absolute magnetization    =     1.02 Bohr mag/cell

     iteration #  2     ecut=    60.00 Ry     beta=0.30
     Davidson diagonalization with overlap
     ethr =  6.13E-10,  avg # of iterations =  1.5
 
     Magnetic moment per site:
     atom:    1    charge:   11.8256    magn:    0.0086    constr:    0.0000
     atom:    2    charge:   10.9600    magn:    0.9519    constr:    0.0000

     total cpu time spent up to now is       86.3 secs

     The total energy is the sum of the following terms:

     one-electron contribution =    -312.94312322 Ry
     hartree contribution      =     165.36572696 Ry
     xc contribution           =     -32.44577413 Ry
     ewald contribution        =     -44.70331250 Ry

     total energy              =    -224.72636587 Ry
     Harris-Foulkes estimate   =    -224.72636589 Ry
     estimated scf accuracy    <       0.00000005 Ry

     total magnetization       =     1.00 Bohr mag/cell
     absolute magnetization    =     1.02 Bohr mag/cell

     iteration #  3     ecut=    60.00 Ry     beta=0.30
     Davidson diagonalization with overlap
     ethr =  2.22E-10,  avg # of iterations =  2.0
 
     Magnetic moment per site:
     atom:    1    charge:   11.8257    magn:    0.0085    constr:    0.0000
     atom:    2    charge:   10.9599    magn:    0.9520    constr:    0.0000

     total cpu time spent up to now is       87.6 secs

     End of self-consistent calculation

 ------ SPIN UP ------------


          k = 0.0000 0.0000 0.0000 ( 26462 PWs)   bands (ev):

   -15.2945 -15.2943 -15.2933 -15.2933 -15.2932 -14.6895 -14.6766 -14.6766
   -14.6489 -14.6481 -10.6919 -10.0975

     occupation numbers 
     1.0000   1.0000   1.0000   1.0000   1.0000   1.0000   1.0000   1.0000
     1.0000   1.0000   1.0000   1.0000

 ------ SPIN DOWN ----------


          k = 0.0000 0.0000 0.0000 ( 26462 PWs)   bands (ev):

   -15.0437 -15.0426 -15.0426 -15.0426 -15.0418 -14.6868 -14.6742 -14.6742
   -14.6472 -14.6464 -10.6644  -8.9324

     occupation numbers 
     1.0000   1.0000   1.0000   1.0000   1.0000   1.0000   1.0000   1.0000
     1.0000   1.0000   1.0000   0.0000

     highest occupied level (ev):   -10.0975

     The total energy is the sum of the following terms:

     one-electron contribution =    -312.94271290 Ry
     hartree contribution      =     165.36541003 Ry
     xc contribution           =     -32.44575051 Ry
     ewald contribution        =     -44.70331250 Ry

!    total energy              =    -224.72636588 Ry
     Harris-Foulkes estimate   =    -224.72636588 Ry
     estimated scf accuracy    <          4.1E-09 Ry

     The total energy is the sum of the following terms:

     one-electron contribution =    -312.94271290 Ry
     hartree contribution      =     165.36541003 Ry
     xc contribution           =     -32.44575051 Ry
     ewald contribution        =     -44.70331250 Ry
     electric field correction =       0.00000000 Ry

     total magnetization       =     1.00 Bohr mag/cell
     absolute magnetization    =     1.02 Bohr mag/cell

     convergence has been achieved in   3 iterations
 
     Using Voronoi cells
     Adding the potential well
        Amplitude [Ry a.u.] : -3.7927E-01
        Fragment start :           1
        Fragment end   :           1
 
 
     Using Voronoi cells
     Adding the potential well
        Amplitude [Ry a.u.] : -3.7927E-01
        Fragment start :           1
        Fragment end   :           1
 
     E field correction :    4.54728403280097       Ry
     #e's   in well     :    11.9894322565591       electrons
     Numerical error    :    1.056774344088041E-002 electrons
 
     -----------------------------------------------
 
                      SCF converged but...
 
     electron localization condition NOT satisfied
     restarting scf with different applied potential
 
     New field Amp      :  -0.383282416170985       Ry
     charge density from previous step
 
     Using Voronoi cells
     Adding the potential well
        Amplitude [Ry a.u.] : -3.8328E-01
        Fragment start :           1
        Fragment end   :           1
 

     total cpu time spent up to now is       88.4 secs

     per-process dynamical memory:    45.9 Mb

     Self-consistent Calculation

     iteration #  1     ecut=    60.00 Ry     beta=0.30
     Davidson diagonalization with overlap
     ethr =  2.22E-10,  avg # of iterations =  4.5
 
     Magnetic moment per site:
     atom:    1    charge:   11.8258    magn:    0.0084    constr:    0.0000
     atom:    2    charge:   10.9598    magn:    0.9520    constr:    0.0000

     total cpu time spent up to now is       90.2 secs

     The total energy is the sum of the following terms:

     one-electron contribution =    -312.99184881 Ry
     hartree contribution      =     165.36578570 Ry
     xc contribution           =     -32.44580203 Ry
     ewald contribution        =     -44.70331250 Ry

     total energy              =    -224.77442129 Ry
     Harris-Foulkes estimate   =    -224.77442133 Ry
     estimated scf accuracy    <       0.00000012 Ry

     total magnetization       =     1.00 Bohr mag/cell
     absolute magnetization    =     1.02 Bohr mag/cell

     iteration #  2     ecut=    60.00 Ry     beta=0.30
     Davidson diagonalization with overlap
     ethr =  5.01E-10,  avg # of iterations =  1.5
 
     Magnetic moment per site:
     atom:    1    charge:   11.8261    magn:    0.0082    constr:    0.0000
     atom:    2    charge:   10.9596    magn:    0.9522    constr:    0.0000

     total cpu time spent up to now is       91.5 secs

     The total energy is the sum of the following terms:

     one-electron contribution =    -312.99140945 Ry
     hartree contribution      =     165.36603241 Ry
     xc contribution           =     -32.44584024 Ry
     ewald contribution        =     -44.70331250 Ry

     total energy              =    -224.77442128 Ry
     Harris-Foulkes estimate   =    -224.77442130 Ry
     estimated scf accuracy    <       0.00000004 Ry

     total magnetization       =     1.00 Bohr mag/cell
     absolute magnetization    =     1.02 Bohr mag/cell

     iteration #  3     ecut=    60.00 Ry     beta=0.30
     Davidson diagonalization with overlap
     ethr =  1.82E-10,  avg # of iterations =  2.0
 
     Magnetic moment per site:
     atom:    1    charge:   11.8261    magn:    0.0081    constr:    0.0000
     atom:    2    charge:   10.9595    magn:    0.9522    constr:    0.0000

     total cpu time spent up to now is       92.9 secs

     End of self-consistent calculation

 ------ SPIN UP ------------


          k = 0.0000 0.0000 0.0000 ( 26462 PWs)   bands (ev):

   -15.2972 -15.2970 -15.2960 -15.2960 -15.2959 -14.7412 -14.7282 -14.7282
   -14.7005 -14.6997 -10.7417 -10.1022

     occupation numbers 
     1.0000   1.0000   1.0000   1.0000   1.0000   1.0000   1.0000   1.0000
     1.0000   1.0000   1.0000   1.0000

 ------ SPIN DOWN ----------


          k = 0.0000 0.0000 0.0000 ( 26462 PWs)   bands (ev):

   -15.0463 -15.0452 -15.0452 -15.0452 -15.0444 -14.7385 -14.7259 -14.7259
   -14.6989 -14.6981 -10.7166  -8.9341

     occupation numbers 
     1.0000   1.0000   1.0000   1.0000   1.0000   1.0000   1.0000   1.0000
     1.0000   1.0000   1.0000   0.0000

     highest occupied level (ev):   -10.1022

     The total energy is the sum of the following terms:

     one-electron contribution =    -312.99103842 Ry
     hartree contribution      =     165.36574868 Ry
     xc contribution           =     -32.44581904 Ry
     ewald contribution        =     -44.70331250 Ry

!    total energy              =    -224.77442128 Ry
     Harris-Foulkes estimate   =    -224.77442128 Ry
     estimated scf accuracy    <          3.4E-09 Ry

     The total energy is the sum of the following terms:

     one-electron contribution =    -312.99103842 Ry
     hartree contribution      =     165.36574868 Ry
     xc contribution           =     -32.44581904 Ry
     ewald contribution        =     -44.70331250 Ry
     electric field correction =       0.00000000 Ry

     total magnetization       =     1.00 Bohr mag/cell
     absolute magnetization    =     1.02 Bohr mag/cell

     convergence has been achieved in   3 iterations
 
     Using Voronoi cells
     Adding the potential well
        Amplitude [Ry a.u.] : -3.8328E-01
        Fragment start :           1
        Fragment end   :           1
 
 
     Using Voronoi cells
     Adding the potential well
        Amplitude [Ry a.u.] : -3.8328E-01
        Fragment start :           1
        Fragment end   :           1
 
     E field correction :    4.59550375056527       Ry
     #e's   in well     :    11.9898632357694       electrons
     Numerical error    :    1.013676423058207E-002 electrons
 
     -----------------------------------------------
 
                      SCF converged but...
 
     electron localization condition NOT satisfied
     restarting scf with different applied potential
 
     New field Amp      :  -0.387167659657438       Ry
     charge density from previous step
 
     Using Voronoi cells
     Adding the potential well
        Amplitude [Ry a.u.] : -3.8717E-01
        Fragment start :           1
        Fragment end   :           1
 

     total cpu time spent up to now is       93.9 secs

     per-process dynamical memory:    45.9 Mb

     Self-consistent Calculation

     iteration #  1     ecut=    60.00 Ry     beta=0.30
     Davidson diagonalization with overlap
     ethr =  1.82E-10,  avg # of iterations =  4.5
 
     Magnetic moment per site:
     atom:    1    charge:   11.8263    magn:    0.0080    constr:    0.0000
     atom:    2    charge:   10.9594    magn:    0.9523    constr:    0.0000

     total cpu time spent up to now is       95.6 secs

     The total energy is the sum of the following terms:

     one-electron contribution =    -313.03861813 Ry
     hartree contribution      =     165.36609427 Ry
     xc contribution           =     -32.44586602 Ry
     ewald contribution        =     -44.70331250 Ry

     total energy              =    -224.82100560 Ry
     Harris-Foulkes estimate   =    -224.82100563 Ry
     estimated scf accuracy    <       0.00000010 Ry

     total magnetization       =     1.00 Bohr mag/cell
     absolute magnetization    =     1.02 Bohr mag/cell

     iteration #  2     ecut=    60.00 Ry     beta=0.30
     Davidson diagonalization with overlap
     ethr =  4.16E-10,  avg # of iterations =  2.0
 
     Magnetic moment per site:
     atom:    1    charge:   11.8265    magn:    0.0079    constr:    0.0000
     atom:    2    charge:   10.9593    magn:    0.9524    constr:    0.0000

     total cpu time spent up to now is       97.4 secs

     The total energy is the sum of the following terms:

     one-electron contribution =    -313.03819619 Ry
     hartree contribution      =     165.36630732 Ry
     xc contribution           =     -32.44589946 Ry
     ewald contribution        =     -44.70331250 Ry

     total energy              =    -224.82100559 Ry
     Harris-Foulkes estimate   =    -224.82100560 Ry
     estimated scf accuracy    <       0.00000003 Ry

     total magnetization       =     1.00 Bohr mag/cell
     absolute magnetization    =     1.02 Bohr mag/cell

     iteration #  3     ecut=    60.00 Ry     beta=0.30
     Davidson diagonalization with overlap
     ethr =  1.50E-10,  avg # of iterations =  2.0
 
     Magnetic moment per site:
     atom:    1    charge:   11.8265    magn:    0.0078    constr:    0.0000
     atom:    2    charge:   10.9592    magn:    0.9525    constr:    0.0000

     total cpu time spent up to now is       99.0 secs

     End of self-consistent calculation

 ------ SPIN UP ------------


          k = 0.0000 0.0000 0.0000 ( 26462 PWs)   bands (ev):

   -15.2996 -15.2994 -15.2984 -15.2984 -15.2983 -14.7914 -14.7785 -14.7785
   -14.7508 -14.7500 -10.7905 -10.1063

     occupation numbers 
     1.0000   1.0000   1.0000   1.0000   1.0000   1.0000   1.0000   1.0000
     1.0000   1.0000   1.0000   1.0000

 ------ SPIN DOWN ----------


          k = 0.0000 0.0000 0.0000 ( 26462 PWs)   bands (ev):

   -15.0487 -15.0477 -15.0477 -15.0476 -15.0468 -14.7889 -14.7761 -14.7761
   -14.7491 -14.7484 -10.7673  -8.9356

     occupation numbers 
     1.0000   1.0000   1.0000   1.0000   1.0000   1.0000   1.0000   1.0000
     1.0000   1.0000   1.0000   0.0000

     highest occupied level (ev):   -10.1063

     The total energy is the sum of the following terms:

     one-electron contribution =    -313.03789401 Ry
     hartree contribution      =     165.36608466 Ry
     xc contribution           =     -32.44588374 Ry
     ewald contribution        =     -44.70331250 Ry

!    total energy              =    -224.82100559 Ry
     Harris-Foulkes estimate   =    -224.82100559 Ry
     estimated scf accuracy    <          2.9E-09 Ry

     The total energy is the sum of the following terms:

     one-electron contribution =    -313.03789401 Ry
     hartree contribution      =     165.36608466 Ry
     xc contribution           =     -32.44588374 Ry
     ewald contribution        =     -44.70331250 Ry
     electric field correction =       0.00000000 Ry

     total magnetization       =     1.00 Bohr mag/cell
     absolute magnetization    =     1.02 Bohr mag/cell

     convergence has been achieved in   3 iterations
 
     Using Voronoi cells
     Adding the potential well
        Amplitude [Ry a.u.] : -3.8717E-01
        Fragment start :           1
        Fragment end   :           1
 
 
     Using Voronoi cells
     Adding the potential well
        Amplitude [Ry a.u.] : -3.8717E-01
        Fragment start :           1
        Fragment end   :           1
 
     E field correction :    4.64223889243117       Ry
     #e's   in well     :    11.9902548072804       electrons

     Writing output data file zn.save
 
     init_run     :      1.42s CPU      1.48s WALL (       1 calls)
     electrons    :     84.08s CPU     88.54s WALL (      14 calls)
     update_pot   :      6.61s CPU      7.10s WALL (      13 calls)

     Called by init_run:
     wfcinit      :      0.60s CPU      0.61s WALL (       1 calls)
     potinit      :      0.58s CPU      0.62s WALL (       1 calls)

     Called by electrons:
     c_bands      :     37.71s CPU     39.56s WALL (      56 calls)
     sum_band     :     11.58s CPU     12.24s WALL (      56 calls)
     v_of_rho     :     32.86s CPU     34.32s WALL (      70 calls)
     v_h          :      1.61s CPU      1.65s WALL (      70 calls)
     v_xc         :     31.22s CPU     32.63s WALL (      70 calls)
     mix_rho      :      4.20s CPU      4.67s WALL (      56 calls)

     Called by c_bands:
     init_us_2    :      0.78s CPU      0.82s WALL (     226 calls)
     regterg      :     35.98s CPU     37.75s WALL (     112 calls)

     Called by sum_band:

     Called by *egterg:
     h_psi        :     33.00s CPU     34.65s WALL (     394 calls)
     g_psi        :      0.13s CPU      0.12s WALL (     280 calls)
     rdiaghg      :      0.45s CPU      0.47s WALL (     366 calls)
     regterg:over :      0.76s CPU      0.76s WALL (     280 calls)
     regterg:upda :      0.94s CPU      1.01s WALL (     280 calls)
     regterg:last :      0.22s CPU      0.24s WALL (     112 calls)
     rdiaghg:chol :      0.04s CPU      0.05s WALL (     366 calls)
     rdiaghg:inve :      0.01s CPU      0.01s WALL (     366 calls)
     rdiaghg:para :      0.05s CPU      0.05s WALL (     732 calls)

     Called by h_psi:
     h_psi:vloc   :     31.21s CPU     32.81s WALL (     394 calls)
     h_psi:vnl    :      1.65s CPU      1.69s WALL (     394 calls)
     add_vuspsi   :      0.45s CPU      0.48s WALL (     394 calls)

     General routines
     calbec       :      1.20s CPU      1.21s WALL (     394 calls)
     fft          :     22.44s CPU     23.66s WALL (    1402 calls)
     fftw         :     31.36s CPU     32.95s WALL (    4222 calls)
     davcio       :      0.00s CPU      0.01s WALL (       2 calls)
 
     Parallel routines
     fft_scatter  :     32.42s CPU     34.31s WALL (    5624 calls)
 
     PWSCF        :  1m34.08s CPU     1m39.43s WALL

 
   This run was terminated on:  11:48:12  10Jun2015            

=------------------------------------------------------------------------------=
   JOB DONE.
=------------------------------------------------------------------------------=
