
     Program PWSCF v.5.1.1 starts on 10Jun2015 at 11:48:17 

     This program is part of the open-source Quantum ESPRESSO suite
     for quantum simulation of materials; please cite
         "P. Giannozzi et al., J. Phys.:Condens. Matter 21 395502 (2009);
          URL http://www.quantum-espresso.org", 
     in publications or presentations arising from this work. More details at
     http://www.quantum-espresso.org/quote

     Parallel version (MPI & OpenMP), running on       8 processor cores
     Number of MPI processes:                 8
     Threads/MPI process:                     1
     R & G space division:  proc/nbgrp/npool/nimage =       8
     Waiting for input...
     Reading input from standard input
Warning: card &IONS ignored
Warning: card / ignored

     Current dimensions of program PWSCF are:
     Max number of different atomic species (ntypx) = 10
     Max number of k-points (npk) =  40000
     Max angular momentum in pseudopotentials (lmaxx) =  3
     Presently no symmetry can be used with electric field

               file H.pbe-rrkjus.UPF: wavefunction(s)  1S renormalized

     gamma-point specific algorithms are used

     Subspace diagonalization in iterative solution of the eigenvalue problem:
     scalapack distributed-memory algorithm (size of sub-group:  2*  2 procs)

 
     Parallelization info
     --------------------
     sticks:   dense  smooth     PW     G-vecs:    dense   smooth      PW
     Min         124     124     30                 2980     2980     366
     Max         126     126     31                 2983     2983     375
     Sum         997     997    241                23847    23847    2945
     Tot         499     499    121
 
     Generating pointlists ...
     new r_m :   0.0867 (alat units)  1.1463 (a.u.) for type    1
     new r_m :   0.0867 (alat units)  1.1463 (a.u.) for type    2


     bravais-lattice index     =            1
     lattice parameter (alat)  =      13.2281  a.u.
     unit-cell volume          =    2314.6788 (a.u.)^3
     number of atoms/cell      =            5
     number of atomic types    =            2
     number of electrons       =         8.00 (up:   4.00, down:   4.00)
     number of Kohn-Sham states=            4
     kinetic-energy cutoff     =      18.0000  Ry
     charge density cutoff     =      72.0000  Ry
     convergence threshold     =      1.0E-06
     mixing beta               =       0.3000
     number of iterations used =            8  plain     mixing
     Exchange-correlation      =  SLA  PW   PBE  PBE ( 1  4  3  4 0 0)

     celldm(1)=  13.228083  celldm(2)=   0.000000  celldm(3)=   0.000000
     celldm(4)=   0.000000  celldm(5)=   0.000000  celldm(6)=   0.000000

     crystal axes: (cart. coord. in units of alat)
               a(1) = (   1.000000   0.000000   0.000000 )  
               a(2) = (   0.000000   1.000000   0.000000 )  
               a(3) = (   0.000000   0.000000   1.000000 )  

     reciprocal axes: (cart. coord. in units 2 pi/alat)
               b(1) = (  1.000000  0.000000  0.000000 )  
               b(2) = (  0.000000  1.000000  0.000000 )  
               b(3) = (  0.000000  0.000000  1.000000 )  


     PseudoPot. # 1 for Si read from file:
     /home/matt/espresso/pseudo/Si.pbe-n-van.UPF
     MD5 check sum: 8a97496598b7338af554a5de8957bfee
     Pseudo is Ultrasoft + core correction, Zval =  4.0
     Generated by new atomic code, or converted to UPF format
     Using radial grid of  899 points,  6 beta functions with: 
                l(1) =   0
                l(2) =   0
                l(3) =   1
                l(4) =   1
                l(5) =   2
                l(6) =   2
     Q(r) pseudized with  8 coefficients,  rinner =    0.900   0.900   0.900
                                                       0.900   0.900

     PseudoPot. # 2 for H  read from file:
     /home/matt/espresso/pseudo/H.pbe-rrkjus.UPF
     MD5 check sum: 7cc9d459525c9a0585f487a71c3c9563
     Pseudo is Ultrasoft, Zval =  1.0
     Generated by new atomic code, or converted to UPF format
     Using radial grid of 1061 points,  2 beta functions with: 
                l(1) =   0
                l(2) =   0
     Q(r) pseudized with 0 coefficients 


     atomic species   valence    mass     pseudopotential
        Si             4.00    28.08550     Si( 1.00)
        H              1.00     1.00794     H ( 1.00)

     Starting magnetic structure 
     atomic species   magnetization
        Si           0.000
        H            0.000

     No symmetry found



   Cartesian axes

     site n.     atom                  positions (alat units)
         1           Si  tau(   1) = (  -0.0277829   0.3482714   0.0000000  )
         2           H   tau(   2) = (   0.1822929   0.3482714   0.0000000  )
         3           H   tau(   3) = (  -0.0978086   0.4498400   0.1700357  )
         4           H   tau(   4) = (  -0.0978086   0.1502329   0.0029429  )
         5           H   tau(   5) = (  -0.0978086   0.4447414  -0.1729786  )

     number of k points=     2
                       cart. coord. in units 2pi/alat
        k(    1) = (   0.0000000   0.0000000   0.0000000), wk =   1.0000000
        k(    2) = (   0.0000000   0.0000000   0.0000000), wk =   1.0000000

     Dense  grid:    11924 G-vectors     FFT dimensions: (  36,  36,  36)

     Largest allocated arrays     est. size (Mb)     dimensions
        Kohn-Sham Wavefunctions         0.01 Mb     (     185,    4)
        NL pseudopotentials             0.07 Mb     (     185,   26)
        Each V/rho on FFT grid          0.20 Mb     (    6480,   2)
        Each G-vector array             0.01 Mb     (    1490)
        G-vector shells                 0.00 Mb     (     230)
     Largest temporary arrays     est. size (Mb)     dimensions
        Auxiliary wavefunctions         0.02 Mb     (     185,   16)
        Each subspace H/S matrix        0.00 Mb     (       8,    8)
        Each <psi_i|beta_j> matrix      0.00 Mb     (      26,    4)
        Arrays for rho mixing           0.79 Mb     (    6480,    8)
 
     Using a distance-based cell
     Adding the potential well
        Amplitude [Ry a.u.] : -1.0000E+00
        Atom selected :           1
        Well size     :  2.6456E+00
 

     Check: negative/imaginary core charge=   -0.000002    0.000000

     Initial potential from superposition of free atoms

     starting charge    7.61451, renormalised to    8.00000

     negative rho (up, down):  6.546E-07 6.546E-07
     Starting wfc are    8 randomized atomic wfcs

     total cpu time spent up to now is        0.4 secs

     per-process dynamical memory:     8.7 Mb

     Self-consistent Calculation

     iteration #  1     ecut=    18.00 Ry     beta=0.30
     Davidson diagonalization with overlap
     ethr =  1.00E-02,  avg # of iterations =  3.0

     negative rho (up, down):  7.258E-05 7.225E-05
 
     Magnetic moment per site:
     atom:    1    charge:    0.5160    magn:    0.0002    constr:    0.0000
     atom:    2    charge:    0.4657    magn:   -0.0003    constr:    0.0000
     atom:    3    charge:    0.4649    magn:    0.0000    constr:    0.0000
     atom:    4    charge:    0.4654    magn:   -0.0002    constr:    0.0000
     atom:    5    charge:    0.4638    magn:    0.0000    constr:    0.0000

     total cpu time spent up to now is        0.5 secs

     The total energy is the sum of the following terms:

     one-electron contribution =     -25.51098740 Ry
     hartree contribution      =       7.90736409 Ry
     xc contribution           =      -6.42725258 Ry
     ewald contribution        =       0.88693575 Ry

     total energy              =     -19.32537620 Ry
     Harris-Foulkes estimate   =     -20.19047840 Ry
     estimated scf accuracy    <       2.23851308 Ry

     total magnetization       =     0.00 Bohr mag/cell
     absolute magnetization    =     0.01 Bohr mag/cell

     iteration #  2     ecut=    18.00 Ry     beta=0.30
     Davidson diagonalization with overlap
     ethr =  1.00E-02,  avg # of iterations =  1.0

     negative rho (up, down):  8.304E-03 8.285E-03
 
     Magnetic moment per site:
     atom:    1    charge:    0.6213    magn:    0.0002    constr:    0.0000
     atom:    2    charge:    0.6083    magn:   -0.0005    constr:    0.0000
     atom:    3    charge:    0.6032    magn:    0.0000    constr:    0.0000
     atom:    4    charge:    0.6081    magn:   -0.0003    constr:    0.0000
     atom:    5    charge:    0.6015    magn:    0.0000    constr:    0.0000

     total cpu time spent up to now is        0.5 secs

     The total energy is the sum of the following terms:

     one-electron contribution =     -25.06761308 Ry
     hartree contribution      =      11.48804692 Ry
     xc contribution           =      -7.41471631 Ry
     ewald contribution        =       0.88693575 Ry

     total energy              =     -18.82465568 Ry
     Harris-Foulkes estimate   =     -19.38813982 Ry
     estimated scf accuracy    <       0.79016374 Ry

     total magnetization       =     0.00 Bohr mag/cell
     absolute magnetization    =     0.00 Bohr mag/cell

     iteration #  3     ecut=    18.00 Ry     beta=0.30
     Davidson diagonalization with overlap
     ethr =  9.88E-03,  avg # of iterations =  2.0

     negative rho (up, down):  1.717E-02 1.716E-02
 
     Magnetic moment per site:
     atom:    1    charge:    0.5146    magn:    0.0001    constr:    0.0000
     atom:    2    charge:    0.6987    magn:   -0.0002    constr:    0.0000
     atom:    3    charge:    0.6929    magn:    0.0000    constr:    0.0000
     atom:    4    charge:    0.6970    magn:   -0.0001    constr:    0.0000
     atom:    5    charge:    0.6916    magn:    0.0000    constr:    0.0000

     total cpu time spent up to now is        0.6 secs

     The total energy is the sum of the following terms:

     one-electron contribution =     -24.10101088 Ry
     hartree contribution      =      11.42996435 Ry
     xc contribution           =      -7.45965668 Ry
     ewald contribution        =       0.88693575 Ry

     total energy              =     -18.91577859 Ry
     Harris-Foulkes estimate   =     -18.95061300 Ry
     estimated scf accuracy    <       0.07505415 Ry

     total magnetization       =     0.00 Bohr mag/cell
     absolute magnetization    =     0.00 Bohr mag/cell

     iteration #  4     ecut=    18.00 Ry     beta=0.30
     Davidson diagonalization with overlap
     ethr =  9.38E-04,  avg # of iterations =  2.0

     negative rho (up, down):  3.482E-02 3.481E-02
 
     Magnetic moment per site:
     atom:    1    charge:    0.5317    magn:    0.0000    constr:    0.0000
     atom:    2    charge:    0.7142    magn:   -0.0002    constr:    0.0000
     atom:    3    charge:    0.7077    magn:    0.0000    constr:    0.0000
     atom:    4    charge:    0.7125    magn:   -0.0001    constr:    0.0000
     atom:    5    charge:    0.7063    magn:    0.0000    constr:    0.0000

     total cpu time spent up to now is        0.6 secs

     The total energy is the sum of the following terms:

     one-electron contribution =     -24.44436867 Ry
     hartree contribution      =      12.01409084 Ry
     xc contribution           =      -7.61458447 Ry
     ewald contribution        =       0.88693575 Ry

     total energy              =     -18.91947198 Ry
     Harris-Foulkes estimate   =     -18.93387487 Ry
     estimated scf accuracy    <       0.02422216 Ry

     total magnetization       =     0.00 Bohr mag/cell
     absolute magnetization    =     0.00 Bohr mag/cell

     iteration #  5     ecut=    18.00 Ry     beta=0.30
     Davidson diagonalization with overlap
     ethr =  3.03E-04,  avg # of iterations =  2.0

     negative rho (up, down):  3.685E-02 3.684E-02
 
     Magnetic moment per site:
     atom:    1    charge:    0.5286    magn:    0.0001    constr:    0.0000
     atom:    2    charge:    0.7270    magn:   -0.0002    constr:    0.0000
     atom:    3    charge:    0.7204    magn:    0.0000    constr:    0.0000
     atom:    4    charge:    0.7252    magn:   -0.0001    constr:    0.0000
     atom:    5    charge:    0.7190    magn:    0.0000    constr:    0.0000

     total cpu time spent up to now is        0.7 secs

     The total energy is the sum of the following terms:

     one-electron contribution =     -24.26041165 Ry
     hartree contribution      =      12.09314065 Ry
     xc contribution           =      -7.64924660 Ry
     ewald contribution        =       0.88693575 Ry

     total energy              =     -18.92419492 Ry
     Harris-Foulkes estimate   =     -18.92319479 Ry
     estimated scf accuracy    <       0.00155599 Ry

     total magnetization       =     0.00 Bohr mag/cell
     absolute magnetization    =     0.00 Bohr mag/cell

     iteration #  6     ecut=    18.00 Ry     beta=0.30
     Davidson diagonalization with overlap
     ethr =  1.94E-05,  avg # of iterations =  1.0

     negative rho (up, down):  3.882E-02 3.882E-02
 
     Magnetic moment per site:
     atom:    1    charge:    0.5359    magn:    0.0000    constr:    0.0000
     atom:    2    charge:    0.6986    magn:    0.0000    constr:    0.0000
     atom:    3    charge:    0.6922    magn:    0.0000    constr:    0.0000
     atom:    4    charge:    0.6972    magn:    0.0000    constr:    0.0000
     atom:    5    charge:    0.6908    magn:    0.0000    constr:    0.0000

     total cpu time spent up to now is        0.7 secs

     The total energy is the sum of the following terms:

     one-electron contribution =     -24.25693976 Ry
     hartree contribution      =      12.02125130 Ry
     xc contribution           =      -7.59400198 Ry
     ewald contribution        =       0.88693575 Ry

     total energy              =     -18.92229790 Ry
     Harris-Foulkes estimate   =     -18.92424434 Ry
     estimated scf accuracy    <       0.00411071 Ry

     total magnetization       =     0.00 Bohr mag/cell
     absolute magnetization    =     0.00 Bohr mag/cell

     iteration #  7     ecut=    18.00 Ry     beta=0.30
     Davidson diagonalization with overlap
     ethr =  1.94E-05,  avg # of iterations =  2.0

     negative rho (up, down):  3.878E-02 3.878E-02
 
     Magnetic moment per site:
     atom:    1    charge:    0.5358    magn:    0.0000    constr:    0.0000
     atom:    2    charge:    0.6988    magn:    0.0000    constr:    0.0000
     atom:    3    charge:    0.6924    magn:    0.0000    constr:    0.0000
     atom:    4    charge:    0.6973    magn:    0.0000    constr:    0.0000
     atom:    5    charge:    0.6909    magn:    0.0000    constr:    0.0000

     total cpu time spent up to now is        0.8 secs

     The total energy is the sum of the following terms:

     one-electron contribution =     -24.22564098 Ry
     hartree contribution      =      12.02006002 Ry
     xc contribution           =      -7.59388486 Ry
     ewald contribution        =       0.88693575 Ry

     total energy              =     -18.92279051 Ry
     Harris-Foulkes estimate   =     -18.92279518 Ry
     estimated scf accuracy    <       0.00007949 Ry

     total magnetization       =     0.00 Bohr mag/cell
     absolute magnetization    =     0.00 Bohr mag/cell

     iteration #  8     ecut=    18.00 Ry     beta=0.30
     Davidson diagonalization with overlap
     ethr =  9.94E-07,  avg # of iterations =  2.0

     negative rho (up, down):  3.886E-02 3.885E-02
 
     Magnetic moment per site:
     atom:    1    charge:    0.5354    magn:    0.0000    constr:    0.0000
     atom:    2    charge:    0.7000    magn:   -0.0001    constr:    0.0000
     atom:    3    charge:    0.6936    magn:    0.0000    constr:    0.0000
     atom:    4    charge:    0.6986    magn:    0.0000    constr:    0.0000
     atom:    5    charge:    0.6922    magn:    0.0000    constr:    0.0000

     total cpu time spent up to now is        0.8 secs

     The total energy is the sum of the following terms:

     one-electron contribution =     -24.22760618 Ry
     hartree contribution      =      12.02414705 Ry
     xc contribution           =      -7.59640673 Ry
     ewald contribution        =       0.88693575 Ry

     total energy              =     -18.92278235 Ry
     Harris-Foulkes estimate   =     -18.92279729 Ry
     estimated scf accuracy    <       0.00006597 Ry

     total magnetization       =     0.00 Bohr mag/cell
     absolute magnetization    =     0.00 Bohr mag/cell

     iteration #  9     ecut=    18.00 Ry     beta=0.30
     Davidson diagonalization with overlap
     ethr =  8.25E-07,  avg # of iterations =  1.0

     negative rho (up, down):  3.884E-02 3.884E-02
 
     Magnetic moment per site:
     atom:    1    charge:    0.5353    magn:    0.0000    constr:    0.0000
     atom:    2    charge:    0.7002    magn:    0.0000    constr:    0.0000
     atom:    3    charge:    0.6939    magn:    0.0000    constr:    0.0000
     atom:    4    charge:    0.6988    magn:    0.0000    constr:    0.0000
     atom:    5    charge:    0.6924    magn:    0.0000    constr:    0.0000

     total cpu time spent up to now is        0.9 secs

     The total energy is the sum of the following terms:

     one-electron contribution =     -24.22842382 Ry
     hartree contribution      =      12.02507172 Ry
     xc contribution           =      -7.59692098 Ry
     ewald contribution        =       0.88693575 Ry

     total energy              =     -18.92278149 Ry
     Harris-Foulkes estimate   =     -18.92278347 Ry
     estimated scf accuracy    <       0.00003219 Ry

     total magnetization       =     0.00 Bohr mag/cell
     absolute magnetization    =     0.00 Bohr mag/cell

     iteration # 10     ecut=    18.00 Ry     beta=0.30
     Davidson diagonalization with overlap
     ethr =  4.02E-07,  avg # of iterations =  1.0

     negative rho (up, down):  3.872E-02 3.872E-02
 
     Magnetic moment per site:
     atom:    1    charge:    0.5349    magn:    0.0000    constr:    0.0000
     atom:    2    charge:    0.7002    magn:    0.0000    constr:    0.0000
     atom:    3    charge:    0.6939    magn:    0.0000    constr:    0.0000
     atom:    4    charge:    0.6988    magn:    0.0000    constr:    0.0000
     atom:    5    charge:    0.6924    magn:    0.0000    constr:    0.0000

     total cpu time spent up to now is        1.0 secs

     The total energy is the sum of the following terms:

     one-electron contribution =     -24.22893868 Ry
     hartree contribution      =      12.02428767 Ry
     xc contribution           =      -7.59664551 Ry
     ewald contribution        =       0.88693575 Ry

     total energy              =     -18.92278069 Ry
     Harris-Foulkes estimate   =     -18.92278176 Ry
     estimated scf accuracy    <       0.00002450 Ry

     total magnetization       =     0.00 Bohr mag/cell
     absolute magnetization    =     0.00 Bohr mag/cell

     iteration # 11     ecut=    18.00 Ry     beta=0.30
     Davidson diagonalization with overlap
     ethr =  3.06E-07,  avg # of iterations =  1.0

     negative rho (up, down):  3.860E-02 3.860E-02
 
     Magnetic moment per site:
     atom:    1    charge:    0.5346    magn:    0.0000    constr:    0.0000
     atom:    2    charge:    0.7003    magn:    0.0000    constr:    0.0000
     atom:    3    charge:    0.6940    magn:    0.0000    constr:    0.0000
     atom:    4    charge:    0.6988    magn:    0.0000    constr:    0.0000
     atom:    5    charge:    0.6925    magn:    0.0000    constr:    0.0000

     total cpu time spent up to now is        1.0 secs

     The total energy is the sum of the following terms:

     one-electron contribution =     -24.22923443 Ry
     hartree contribution      =      12.02238253 Ry
     xc contribution           =      -7.59623370 Ry
     ewald contribution        =       0.88693575 Ry

     total energy              =     -18.92277884 Ry
     Harris-Foulkes estimate   =     -18.92278096 Ry
     estimated scf accuracy    <       0.00001827 Ry

     total magnetization       =     0.00 Bohr mag/cell
     absolute magnetization    =     0.00 Bohr mag/cell

     iteration # 12     ecut=    18.00 Ry     beta=0.30
     Davidson diagonalization with overlap
     ethr =  2.28E-07,  avg # of iterations =  1.0

     negative rho (up, down):  3.856E-02 3.856E-02
 
     Magnetic moment per site:
     atom:    1    charge:    0.5340    magn:    0.0000    constr:    0.0000
     atom:    2    charge:    0.7014    magn:    0.0000    constr:    0.0000
     atom:    3    charge:    0.6951    magn:    0.0000    constr:    0.0000
     atom:    4    charge:    0.7000    magn:    0.0000    constr:    0.0000
     atom:    5    charge:    0.6936    magn:    0.0000    constr:    0.0000

     total cpu time spent up to now is        1.1 secs

     The total energy is the sum of the following terms:

     one-electron contribution =     -24.23022173 Ry
     hartree contribution      =      12.02262861 Ry
     xc contribution           =      -7.59756949 Ry
     ewald contribution        =       0.88693575 Ry

     total energy              =     -18.92277358 Ry
     Harris-Foulkes estimate   =     -18.92277905 Ry
     estimated scf accuracy    <       0.00001313 Ry

     total magnetization       =     0.00 Bohr mag/cell
     absolute magnetization    =     0.00 Bohr mag/cell

     iteration # 13     ecut=    18.00 Ry     beta=0.30
     Davidson diagonalization with overlap
     ethr =  1.64E-07,  avg # of iterations =  2.0

     negative rho (up, down):  3.859E-02 3.859E-02
 
     Magnetic moment per site:
     atom:    1    charge:    0.5341    magn:    0.0000    constr:    0.0000
     atom:    2    charge:    0.7012    magn:    0.0000    constr:    0.0000
     atom:    3    charge:    0.6949    magn:    0.0000    constr:    0.0000
     atom:    4    charge:    0.6998    magn:    0.0000    constr:    0.0000
     atom:    5    charge:    0.6934    magn:    0.0000    constr:    0.0000

     total cpu time spent up to now is        1.1 secs

     The total energy is the sum of the following terms:

     one-electron contribution =     -24.23308063 Ry
     hartree contribution      =      12.02246013 Ry
     xc contribution           =      -7.59729243 Ry
     ewald contribution        =       0.88693575 Ry

     total energy              =     -18.92277548 Ry
     Harris-Foulkes estimate   =     -18.92277549 Ry
     estimated scf accuracy    <       0.00000183 Ry

     total magnetization       =     0.00 Bohr mag/cell
     absolute magnetization    =     0.00 Bohr mag/cell

     iteration # 14     ecut=    18.00 Ry     beta=0.30
     Davidson diagonalization with overlap
     ethr =  2.28E-08,  avg # of iterations =  1.0

     negative rho (up, down):  3.866E-02 3.866E-02
 
     Magnetic moment per site:
     atom:    1    charge:    0.5342    magn:    0.0000    constr:    0.0000
     atom:    2    charge:    0.7010    magn:    0.0000    constr:    0.0000
     atom:    3    charge:    0.6948    magn:    0.0000    constr:    0.0000
     atom:    4    charge:    0.6996    magn:    0.0000    constr:    0.0000
     atom:    5    charge:    0.6933    magn:    0.0000    constr:    0.0000

     total cpu time spent up to now is        1.2 secs

     The total energy is the sum of the following terms:

     one-electron contribution =     -24.23270902 Ry
     hartree contribution      =      12.02093464 Ry
     xc contribution           =      -7.59670231 Ry
     ewald contribution        =       0.88693575 Ry

     total energy              =     -18.92277555 Ry
     Harris-Foulkes estimate   =     -18.92277553 Ry
     estimated scf accuracy    <       0.00000153 Ry

     total magnetization       =     0.00 Bohr mag/cell
     absolute magnetization    =     0.00 Bohr mag/cell

     iteration # 15     ecut=    18.00 Ry     beta=0.30
     Davidson diagonalization with overlap
     ethr =  1.91E-08,  avg # of iterations =  1.0

     negative rho (up, down):  3.867E-02 3.867E-02
 
     Magnetic moment per site:
     atom:    1    charge:    0.5341    magn:    0.0000    constr:    0.0000
     atom:    2    charge:    0.7012    magn:    0.0000    constr:    0.0000
     atom:    3    charge:    0.6950    magn:    0.0000    constr:    0.0000
     atom:    4    charge:    0.6998    magn:    0.0000    constr:    0.0000
     atom:    5    charge:    0.6935    magn:    0.0000    constr:    0.0000

     total cpu time spent up to now is        1.2 secs

     End of self-consistent calculation

 ------ SPIN UP ------------


          k = 0.0000 0.0000 0.0000 (  1473 PWs)   bands (ev):

   -17.8122 -11.6316 -11.5407 -11.5363

 ------ SPIN DOWN ----------


          k = 0.0000 0.0000 0.0000 (  1473 PWs)   bands (ev):

   -17.8122 -11.6315 -11.5406 -11.5363

     highest occupied level (ev):   -11.5363

     The total energy is the sum of the following terms:

     one-electron contribution =     -24.23312607 Ry
     hartree contribution      =      12.02015490 Ry
     xc contribution           =      -7.59674008 Ry
     ewald contribution        =       0.88693575 Ry

!    total energy              =     -18.92277549 Ry
     Harris-Foulkes estimate   =     -18.92277563 Ry
     estimated scf accuracy    <       0.00000030 Ry

     The total energy is the sum of the following terms:

     one-electron contribution =     -24.23312607 Ry
     hartree contribution      =      12.02015490 Ry
     xc contribution           =      -7.59674008 Ry
     ewald contribution        =       0.88693575 Ry
     electric field correction =       0.00000000 Ry

     total magnetization       =     0.00 Bohr mag/cell
     absolute magnetization    =     0.00 Bohr mag/cell

     convergence has been achieved in  15 iterations
 
     Using a distance-based cell
     Adding the potential well
        Amplitude [Ry a.u.] : -1.0000E+00
        Atom selected :           1
        Well size     :  2.6456E+00
 
 
     Using a distance-based cell
     Adding the potential well
        Amplitude [Ry a.u.] : -1.0000E+00
        Atom selected :           1
        Well size     :  2.6456E+00
 
     E field correction :    5.25816048419128       Ry
     #e's   in well     :    5.25816048419128       electrons
     Numerical error    :    0.741839515808723      electrons
 
     -----------------------------------------------
 
                      SCF converged but...
 
     electron localization condition NOT satisfied
     restarting scf with different applied potential
 
     New field Amp      :   -1.74183951580872       Ry
     charge density from previous step

     Check: negative/imaginary core charge=   -0.000002    0.000000

     negative rho (up, down):  3.867E-02 3.867E-02
 
     Using a distance-based cell
     Adding the potential well
        Amplitude [Ry a.u.] : -1.7418E+00
        Atom selected :           1
        Well size     :  2.6456E+00
 

     total cpu time spent up to now is        1.4 secs

     per-process dynamical memory:    10.5 Mb

     Self-consistent Calculation

     iteration #  1     ecut=    18.00 Ry     beta=0.30
     Davidson diagonalization with overlap
     ethr =  1.91E-08,  avg # of iterations = 10.0

     negative rho (up, down):  4.585E-02 4.585E-02
 
     Magnetic moment per site:
     atom:    1    charge:    0.5974    magn:    0.0000    constr:    0.0000
     atom:    2    charge:    0.6673    magn:    0.0000    constr:    0.0000
     atom:    3    charge:    0.6601    magn:    0.0000    constr:    0.0000
     atom:    4    charge:    0.6667    magn:    0.0000    constr:    0.0000
     atom:    5    charge:    0.6584    magn:    0.0000    constr:    0.0000

     total cpu time spent up to now is        1.5 secs

     The total energy is the sum of the following terms:

     one-electron contribution =     -30.16076953 Ry
     hartree contribution      =      12.65848150 Ry
     xc contribution           =      -7.72727272 Ry
     ewald contribution        =       0.88693575 Ry

     total energy              =     -23.11150269 Ry
     Harris-Foulkes estimate   =     -23.22384736 Ry
     estimated scf accuracy    <       0.31228134 Ry

     total magnetization       =     0.00 Bohr mag/cell
     absolute magnetization    =     0.00 Bohr mag/cell

     iteration #  2     ecut=    18.00 Ry     beta=0.30
     Davidson diagonalization with overlap
     ethr =  3.90E-03,  avg # of iterations =  1.0

     negative rho (up, down):  5.499E-02 5.499E-02
 
     Magnetic moment per site:
     atom:    1    charge:    0.6604    magn:    0.0000    constr:    0.0000
     atom:    2    charge:    0.6294    magn:    0.0000    constr:    0.0000
     atom:    3    charge:    0.6206    magn:    0.0000    constr:    0.0000
     atom:    4    charge:    0.6295    magn:    0.0000    constr:    0.0000
     atom:    5    charge:    0.6186    magn:    0.0000    constr:    0.0000

     total cpu time spent up to now is        1.5 secs

     The total energy is the sum of the following terms:

     one-electron contribution =     -29.89570795 Ry
     hartree contribution      =      13.46223319 Ry
     xc contribution           =      -7.89670377 Ry
     ewald contribution        =       0.88693575 Ry

     total energy              =     -23.06976503 Ry
     Harris-Foulkes estimate   =     -23.12280763 Ry
     estimated scf accuracy    <       0.08885174 Ry

     total magnetization       =     0.00 Bohr mag/cell
     absolute magnetization    =     0.00 Bohr mag/cell

     iteration #  3     ecut=    18.00 Ry     beta=0.30
     Davidson diagonalization with overlap
     ethr =  1.11E-03,  avg # of iterations =  2.0

     negative rho (up, down):  5.471E-02 5.471E-02
 
     Magnetic moment per site:
     atom:    1    charge:    0.6567    magn:    0.0000    constr:    0.0000
     atom:    2    charge:    0.6325    magn:    0.0000    constr:    0.0000
     atom:    3    charge:    0.6235    magn:    0.0000    constr:    0.0000
     atom:    4    charge:    0.6325    magn:    0.0000    constr:    0.0000
     atom:    5    charge:    0.6216    magn:    0.0000    constr:    0.0000

     total cpu time spent up to now is        1.6 secs

     The total energy is the sum of the following terms:

     one-electron contribution =     -29.56635183 Ry
     hartree contribution      =      13.45601729 Ry
     xc contribution           =      -7.89805876 Ry
     ewald contribution        =       0.88693575 Ry

     total energy              =     -23.08994139 Ry
     Harris-Foulkes estimate   =     -23.09031410 Ry
     estimated scf accuracy    <       0.00343443 Ry

     total magnetization       =     0.00 Bohr mag/cell
     absolute magnetization    =     0.00 Bohr mag/cell

     iteration #  4     ecut=    18.00 Ry     beta=0.30
     Davidson diagonalization with overlap
     ethr =  4.29E-05,  avg # of iterations =  1.0

     negative rho (up, down):  5.374E-02 5.374E-02
 
     Magnetic moment per site:
     atom:    1    charge:    0.6422    magn:    0.0000    constr:    0.0000
     atom:    2    charge:    0.6440    magn:    0.0000    constr:    0.0000
     atom:    3    charge:    0.6341    magn:    0.0000    constr:    0.0000
     atom:    4    charge:    0.6434    magn:    0.0000    constr:    0.0000
     atom:    5    charge:    0.6322    magn:    0.0000    constr:    0.0000

     total cpu time spent up to now is        1.6 secs

     The total energy is the sum of the following terms:

     one-electron contribution =     -29.56685948 Ry
     hartree contribution      =      13.47551890 Ry
     xc contribution           =      -7.91314787 Ry
     ewald contribution        =       0.88693575 Ry

     total energy              =     -23.08925465 Ry
     Harris-Foulkes estimate   =     -23.09016920 Ry
     estimated scf accuracy    <       0.00248374 Ry

     total magnetization       =     0.00 Bohr mag/cell
     absolute magnetization    =     0.00 Bohr mag/cell

     iteration #  5     ecut=    18.00 Ry     beta=0.30
     Davidson diagonalization with overlap
     ethr =  3.10E-05,  avg # of iterations =  1.0

     negative rho (up, down):  5.364E-02 5.364E-02
 
     Magnetic moment per site:
     atom:    1    charge:    0.6347    magn:    0.0000    constr:    0.0000
     atom:    2    charge:    0.6513    magn:    0.0000    constr:    0.0000
     atom:    3    charge:    0.6408    magn:    0.0000    constr:    0.0000
     atom:    4    charge:    0.6503    magn:    0.0000    constr:    0.0000
     atom:    5    charge:    0.6388    magn:    0.0000    constr:    0.0000

     total cpu time spent up to now is        1.7 secs

     The total energy is the sum of the following terms:

     one-electron contribution =     -29.59512802 Ry
     hartree contribution      =      13.54269296 Ry
     xc contribution           =      -7.93758734 Ry
     ewald contribution        =       0.88693575 Ry

     total energy              =     -23.08922498 Ry
     Harris-Foulkes estimate   =     -23.08940578 Ry
     estimated scf accuracy    <       0.00042701 Ry

     total magnetization       =     0.00 Bohr mag/cell
     absolute magnetization    =     0.00 Bohr mag/cell

     iteration #  6     ecut=    18.00 Ry     beta=0.30
     Davidson diagonalization with overlap
     ethr =  5.34E-06,  avg # of iterations =  2.0

     negative rho (up, down):  5.367E-02 5.367E-02
 
     Magnetic moment per site:
     atom:    1    charge:    0.6345    magn:    0.0000    constr:    0.0000
     atom:    2    charge:    0.6511    magn:    0.0000    constr:    0.0000
     atom:    3    charge:    0.6407    magn:    0.0000    constr:    0.0000
     atom:    4    charge:    0.6503    magn:    0.0000    constr:    0.0000
     atom:    5    charge:    0.6387    magn:    0.0000    constr:    0.0000

     total cpu time spent up to now is        1.7 secs

     The total energy is the sum of the following terms:

     one-electron contribution =     -29.59289524 Ry
     hartree contribution      =      13.54176527 Ry
     xc contribution           =      -7.93739555 Ry
     ewald contribution        =       0.88693575 Ry

     total energy              =     -23.08930192 Ry
     Harris-Foulkes estimate   =     -23.08930078 Ry
     estimated scf accuracy    <       0.00005791 Ry

     total magnetization       =     0.00 Bohr mag/cell
     absolute magnetization    =     0.00 Bohr mag/cell

     iteration #  7     ecut=    18.00 Ry     beta=0.30
     Davidson diagonalization with overlap
     ethr =  7.24E-07,  avg # of iterations =  1.0

     negative rho (up, down):  5.387E-02 5.387E-02
 
     Magnetic moment per site:
     atom:    1    charge:    0.6352    magn:    0.0000    constr:    0.0000
     atom:    2    charge:    0.6504    magn:    0.0000    constr:    0.0000
     atom:    3    charge:    0.6401    magn:    0.0000    constr:    0.0000
     atom:    4    charge:    0.6497    magn:    0.0000    constr:    0.0000
     atom:    5    charge:    0.6382    magn:    0.0000    constr:    0.0000

     total cpu time spent up to now is        1.8 secs

     The total energy is the sum of the following terms:

     one-electron contribution =     -29.59485580 Ry
     hartree contribution      =      13.55189481 Ry
     xc contribution           =      -7.93977820 Ry
     ewald contribution        =       0.88693575 Ry

     total energy              =     -23.08929455 Ry
     Harris-Foulkes estimate   =     -23.08930480 Ry
     estimated scf accuracy    <       0.00004148 Ry

     total magnetization       =     0.00 Bohr mag/cell
     absolute magnetization    =     0.00 Bohr mag/cell

     iteration #  8     ecut=    18.00 Ry     beta=0.30
     Davidson diagonalization with overlap
     ethr =  5.19E-07,  avg # of iterations =  1.0

     negative rho (up, down):  5.386E-02 5.386E-02
 
     Magnetic moment per site:
     atom:    1    charge:    0.6351    magn:    0.0000    constr:    0.0000
     atom:    2    charge:    0.6504    magn:    0.0000    constr:    0.0000
     atom:    3    charge:    0.6402    magn:    0.0000    constr:    0.0000
     atom:    4    charge:    0.6497    magn:    0.0000    constr:    0.0000
     atom:    5    charge:    0.6382    magn:    0.0000    constr:    0.0000

     total cpu time spent up to now is        1.9 secs

     The total energy is the sum of the following terms:

     one-electron contribution =     -29.59044103 Ry
     hartree contribution      =      13.55126262 Ry
     xc contribution           =      -7.93964065 Ry
     ewald contribution        =       0.88693575 Ry

     total energy              =     -23.08929791 Ry
     Harris-Foulkes estimate   =     -23.08929775 Ry
     estimated scf accuracy    <       0.00000285 Ry

     total magnetization       =     0.00 Bohr mag/cell
     absolute magnetization    =     0.00 Bohr mag/cell

     iteration #  9     ecut=    18.00 Ry     beta=0.30
     Davidson diagonalization with overlap
     ethr =  3.56E-08,  avg # of iterations =  3.0

     negative rho (up, down):  5.388E-02 5.388E-02
 
     Magnetic moment per site:
     atom:    1    charge:    0.6352    magn:    0.0000    constr:    0.0000
     atom:    2    charge:    0.6503    magn:    0.0000    constr:    0.0000
     atom:    3    charge:    0.6401    magn:    0.0000    constr:    0.0000
     atom:    4    charge:    0.6496    magn:    0.0000    constr:    0.0000
     atom:    5    charge:    0.6381    magn:    0.0000    constr:    0.0000

     total cpu time spent up to now is        1.9 secs

     The total energy is the sum of the following terms:

     one-electron contribution =     -29.59076075 Ry
     hartree contribution      =      13.55181627 Ry
     xc contribution           =      -7.93972798 Ry
     ewald contribution        =       0.88693575 Ry

     total energy              =     -23.08929826 Ry
     Harris-Foulkes estimate   =     -23.08929833 Ry
     estimated scf accuracy    <       0.00000272 Ry

     total magnetization       =     0.00 Bohr mag/cell
     absolute magnetization    =     0.00 Bohr mag/cell

     iteration # 10     ecut=    18.00 Ry     beta=0.30
     Davidson diagonalization with overlap
     ethr =  3.40E-08,  avg # of iterations =  1.0

     negative rho (up, down):  5.389E-02 5.389E-02
 
     Magnetic moment per site:
     atom:    1    charge:    0.6352    magn:    0.0000    constr:    0.0000
     atom:    2    charge:    0.6503    magn:    0.0000    constr:    0.0000
     atom:    3    charge:    0.6400    magn:    0.0000    constr:    0.0000
     atom:    4    charge:    0.6496    magn:    0.0000    constr:    0.0000
     atom:    5    charge:    0.6381    magn:    0.0000    constr:    0.0000

     total cpu time spent up to now is        2.0 secs

     The total energy is the sum of the following terms:

     one-electron contribution =     -29.59028184 Ry
     hartree contribution      =      13.55276540 Ry
     xc contribution           =      -7.93997579 Ry
     ewald contribution        =       0.88693575 Ry

     total energy              =     -23.08929834 Ry
     Harris-Foulkes estimate   =     -23.08929834 Ry
     estimated scf accuracy    <       0.00000156 Ry

     total magnetization       =     0.00 Bohr mag/cell
     absolute magnetization    =     0.00 Bohr mag/cell

     iteration # 11     ecut=    18.00 Ry     beta=0.30
     Davidson diagonalization with overlap
     ethr =  1.95E-08,  avg # of iterations =  1.0

     negative rho (up, down):  5.389E-02 5.389E-02
 
     Magnetic moment per site:
     atom:    1    charge:    0.6351    magn:    0.0000    constr:    0.0000
     atom:    2    charge:    0.6506    magn:    0.0000    constr:    0.0000
     atom:    3    charge:    0.6402    magn:    0.0000    constr:    0.0000
     atom:    4    charge:    0.6497    magn:    0.0000    constr:    0.0000
     atom:    5    charge:    0.6383    magn:    0.0000    constr:    0.0000

     total cpu time spent up to now is        2.0 secs

     End of self-consistent calculation

 ------ SPIN UP ------------


          k = 0.0000 0.0000 0.0000 (  1473 PWs)   bands (ev):

   -22.9771 -16.1181 -15.9672 -15.9546

 ------ SPIN DOWN ----------


          k = 0.0000 0.0000 0.0000 (  1473 PWs)   bands (ev):

   -22.9771 -16.1181 -15.9672 -15.9546

     highest occupied level (ev):   -15.9546

     The total energy is the sum of the following terms:

     one-electron contribution =     -29.58993038 Ry
     hartree contribution      =      13.55446738 Ry
     xc contribution           =      -7.94077133 Ry
     ewald contribution        =       0.88693575 Ry

!    total energy              =     -23.08929858 Ry
     Harris-Foulkes estimate   =     -23.08929839 Ry
     estimated scf accuracy    <       0.00000095 Ry

     The total energy is the sum of the following terms:

     one-electron contribution =     -29.58993038 Ry
     hartree contribution      =      13.55446738 Ry
     xc contribution           =      -7.94077133 Ry
     ewald contribution        =       0.88693575 Ry
     electric field correction =       0.00000000 Ry

     total magnetization       =     0.00 Bohr mag/cell
     absolute magnetization    =     0.00 Bohr mag/cell

     convergence has been achieved in  11 iterations
 
     Using a distance-based cell
     Adding the potential well
        Amplitude [Ry a.u.] : -1.7418E+00
        Atom selected :           1
        Well size     :  2.6456E+00
 
 
     Using a distance-based cell
     Adding the potential well
        Amplitude [Ry a.u.] : -1.7418E+00
        Atom selected :           1
        Well size     :  2.6456E+00
 
     E field correction :    10.3542650095094       Ry
     #e's   in well     :    5.94444259389880       electrons
     Numerical error    :    5.555740610119653E-002 electrons
 
     -----------------------------------------------
 
                      SCF converged but...
 
     electron localization condition NOT satisfied
     restarting scf with different applied potential
 
     New field Amp      :   -1.83861160115162       Ry
     charge density from previous step

     Check: negative/imaginary core charge=   -0.000002    0.000000

     negative rho (up, down):  5.389E-02 5.389E-02
 
     Using a distance-based cell
     Adding the potential well
        Amplitude [Ry a.u.] : -1.8386E+00
        Atom selected :           1
        Well size     :  2.6456E+00
 

     total cpu time spent up to now is        2.1 secs

     per-process dynamical memory:    10.5 Mb

     Self-consistent Calculation

     iteration #  1     ecut=    18.00 Ry     beta=0.30
     Davidson diagonalization with overlap
     ethr =  1.95E-08,  avg # of iterations =  7.0

     negative rho (up, down):  5.488E-02 5.488E-02
 
     Magnetic moment per site:
     atom:    1    charge:    0.6424    magn:    0.0000    constr:    0.0000
     atom:    2    charge:    0.6462    magn:    0.0000    constr:    0.0000
     atom:    3    charge:    0.6358    magn:    0.0000    constr:    0.0000
     atom:    4    charge:    0.6455    magn:    0.0000    constr:    0.0000
     atom:    5    charge:    0.6338    magn:    0.0000    constr:    0.0000

     total cpu time spent up to now is        2.1 secs

     The total energy is the sum of the following terms:

     one-electron contribution =     -30.37852008 Ry
     hartree contribution      =      13.63378286 Ry
     xc contribution           =      -7.95745694 Ry
     ewald contribution        =       0.88693575 Ry

     total energy              =     -23.66852558 Ry
     Harris-Foulkes estimate   =     -23.66997423 Ry
     estimated scf accuracy    <       0.00411117 Ry

     total magnetization       =     0.00 Bohr mag/cell
     absolute magnetization    =     0.00 Bohr mag/cell

     iteration #  2     ecut=    18.00 Ry     beta=0.30
     Davidson diagonalization with overlap
     ethr =  5.14E-05,  avg # of iterations =  1.0

     negative rho (up, down):  5.597E-02 5.597E-02
 
     Magnetic moment per site:
     atom:    1    charge:    0.6497    magn:    0.0000    constr:    0.0000
     atom:    2    charge:    0.6412    magn:    0.0000    constr:    0.0000
     atom:    3    charge:    0.6307    magn:    0.0000    constr:    0.0000
     atom:    4    charge:    0.6407    magn:    0.0000    constr:    0.0000
     atom:    5    charge:    0.6286    magn:    0.0000    constr:    0.0000

     total cpu time spent up to now is        2.2 secs

     The total energy is the sum of the following terms:

     one-electron contribution =     -30.34363274 Ry
     hartree contribution      =      13.72422056 Ry
     xc contribution           =      -7.97635276 Ry
     ewald contribution        =       0.88693575 Ry

     total energy              =     -23.66799390 Ry
     Harris-Foulkes estimate   =     -23.66867400 Ry
     estimated scf accuracy    <       0.00116242 Ry

     total magnetization       =     0.00 Bohr mag/cell
     absolute magnetization    =     0.00 Bohr mag/cell

     iteration #  3     ecut=    18.00 Ry     beta=0.30
     Davidson diagonalization with overlap
     ethr =  1.45E-05,  avg # of iterations =  2.0

     negative rho (up, down):  5.594E-02 5.594E-02
 
     Magnetic moment per site:
     atom:    1    charge:    0.6493    magn:    0.0000    constr:    0.0000
     atom:    2    charge:    0.6415    magn:    0.0000    constr:    0.0000
     atom:    3    charge:    0.6310    magn:    0.0000    constr:    0.0000
     atom:    4    charge:    0.6410    magn:    0.0000    constr:    0.0000
     atom:    5    charge:    0.6290    magn:    0.0000    constr:    0.0000

     total cpu time spent up to now is        2.3 secs

     The total energy is the sum of the following terms:

     one-electron contribution =     -30.30499076 Ry
     hartree contribution      =      13.72356989 Ry
     xc contribution           =      -7.97651871 Ry
     ewald contribution        =       0.88693575 Ry

     total energy              =     -23.66825680 Ry
     Harris-Foulkes estimate   =     -23.66826102 Ry
     estimated scf accuracy    <       0.00003810 Ry

     total magnetization       =     0.00 Bohr mag/cell
     absolute magnetization    =     0.00 Bohr mag/cell

     iteration #  4     ecut=    18.00 Ry     beta=0.30
     Davidson diagonalization with overlap
     ethr =  4.76E-07,  avg # of iterations =  1.0

     negative rho (up, down):  5.582E-02 5.582E-02
 
     Magnetic moment per site:
     atom:    1    charge:    0.6481    magn:    0.0000    constr:    0.0000
     atom:    2    charge:    0.6425    magn:    0.0000    constr:    0.0000
     atom:    3    charge:    0.6319    magn:    0.0000    constr:    0.0000
     atom:    4    charge:    0.6419    magn:    0.0000    constr:    0.0000
     atom:    5    charge:    0.6299    magn:    0.0000    constr:    0.0000

     total cpu time spent up to now is        2.4 secs

     The total energy is the sum of the following terms:

     one-electron contribution =     -30.30478468 Ry
     hartree contribution      =      13.72430074 Ry
     xc contribution           =      -7.97765979 Ry
     ewald contribution        =       0.88693575 Ry

     total energy              =     -23.66825059 Ry
     Harris-Foulkes estimate   =     -23.66825961 Ry
     estimated scf accuracy    <       0.00002727 Ry

     total magnetization       =     0.00 Bohr mag/cell
     absolute magnetization    =     0.00 Bohr mag/cell

     iteration #  5     ecut=    18.00 Ry     beta=0.30
     Davidson diagonalization with overlap
     ethr =  3.41E-07,  avg # of iterations =  1.0

     negative rho (up, down):  5.576E-02 5.576E-02
 
     Magnetic moment per site:
     atom:    1    charge:    0.6471    magn:    0.0000    constr:    0.0000
     atom:    2    charge:    0.6435    magn:    0.0000    constr:    0.0000
     atom:    3    charge:    0.6327    magn:    0.0000    constr:    0.0000
     atom:    4    charge:    0.6428    magn:    0.0000    constr:    0.0000
     atom:    5    charge:    0.6307    magn:    0.0000    constr:    0.0000

     total cpu time spent up to now is        2.4 secs

     The total energy is the sum of the following terms:

     one-electron contribution =     -30.30753012 Ry
     hartree contribution      =      13.73135278 Ry
     xc contribution           =      -7.98044177 Ry
     ewald contribution        =       0.88693575 Ry

     total energy              =     -23.66824904 Ry
     Harris-Foulkes estimate   =     -23.66825199 Ry
     estimated scf accuracy    <       0.00000706 Ry

     total magnetization       =     0.00 Bohr mag/cell
     absolute magnetization    =     0.00 Bohr mag/cell

     iteration #  6     ecut=    18.00 Ry     beta=0.30
     Davidson diagonalization with overlap
     ethr =  8.82E-08,  avg # of iterations =  2.0

     negative rho (up, down):  5.581E-02 5.581E-02
 
     Magnetic moment per site:
     atom:    1    charge:    0.6472    magn:    0.0000    constr:    0.0000
     atom:    2    charge:    0.6433    magn:    0.0000    constr:    0.0000
     atom:    3    charge:    0.6327    magn:    0.0000    constr:    0.0000
     atom:    4    charge:    0.6428    magn:    0.0000    constr:    0.0000
     atom:    5    charge:    0.6306    magn:    0.0000    constr:    0.0000

     total cpu time spent up to now is        2.5 secs

     End of self-consistent calculation

 ------ SPIN UP ------------


          k = 0.0000 0.0000 0.0000 (  1473 PWs)   bands (ev):

   -23.7368 -16.8013 -16.6418 -16.6284

 ------ SPIN DOWN ----------


          k = 0.0000 0.0000 0.0000 (  1473 PWs)   bands (ev):

   -23.7368 -16.8013 -16.6418 -16.6284

     highest occupied level (ev):   -16.6284

     The total energy is the sum of the following terms:

     one-electron contribution =     -30.30771940 Ry
     hartree contribution      =      13.73354123 Ry
     xc contribution           =      -7.98100755 Ry
     ewald contribution        =       0.88693575 Ry

!    total energy              =     -23.66824997 Ry
     Harris-Foulkes estimate   =     -23.66825009 Ry
     estimated scf accuracy    <       0.00000063 Ry

     The total energy is the sum of the following terms:

     one-electron contribution =     -30.30771940 Ry
     hartree contribution      =      13.73354123 Ry
     xc contribution           =      -7.98100755 Ry
     ewald contribution        =       0.88693575 Ry
     electric field correction =       0.00000000 Ry

     total magnetization       =     0.00 Bohr mag/cell
     absolute magnetization    =     0.00 Bohr mag/cell

     convergence has been achieved in   6 iterations
 
     Using a distance-based cell
     Adding the potential well
        Amplitude [Ry a.u.] : -1.8386E+00
        Atom selected :           1
        Well size     :  2.6456E+00
 
 
     Using a distance-based cell
     Adding the potential well
        Amplitude [Ry a.u.] : -1.8386E+00
        Atom selected :           1
        Well size     :  2.6456E+00
 
     E field correction :    11.0694913313390       Ry
     #e's   in well     :    6.02057080701849       electrons
     Numerical error    :   -2.057080701849223E-002 electrons
 
     -----------------------------------------------
 
                      SCF converged but...
 
     electron localization condition NOT satisfied
     restarting scf with different applied potential
 
     New field Amp      :   -1.80078987672237       Ry
     charge density from previous step

     Check: negative/imaginary core charge=   -0.000002    0.000000

     negative rho (up, down):  5.581E-02 5.581E-02
 
     Using a distance-based cell
     Adding the potential well
        Amplitude [Ry a.u.] : -1.8008E+00
        Atom selected :           1
        Well size     :  2.6456E+00
 

     total cpu time spent up to now is        2.5 secs

     per-process dynamical memory:    10.5 Mb

     Self-consistent Calculation

     iteration #  1     ecut=    18.00 Ry     beta=0.30
     Davidson diagonalization with overlap
     ethr =  8.82E-08,  avg # of iterations =  5.0

     negative rho (up, down):  5.541E-02 5.541E-02
 
     Magnetic moment per site:
     atom:    1    charge:    0.6443    magn:    0.0000    constr:    0.0000
     atom:    2    charge:    0.6451    magn:    0.0000    constr:    0.0000
     atom:    3    charge:    0.6344    magn:    0.0000    constr:    0.0000
     atom:    4    charge:    0.6444    magn:    0.0000    constr:    0.0000
     atom:    5    charge:    0.6324    magn:    0.0000    constr:    0.0000

     total cpu time spent up to now is        2.6 secs

     The total energy is the sum of the following terms:

     one-electron contribution =     -29.99786720 Ry
     hartree contribution      =      13.70202126 Ry
     xc contribution           =      -7.97433941 Ry
     ewald contribution        =       0.88693575 Ry

     total energy              =     -23.44114531 Ry
     Harris-Foulkes estimate   =     -23.44136857 Ry
     estimated scf accuracy    <       0.00063384 Ry

     total magnetization       =     0.00 Bohr mag/cell
     absolute magnetization    =     0.00 Bohr mag/cell

     iteration #  2     ecut=    18.00 Ry     beta=0.30
     Davidson diagonalization with overlap
     ethr =  7.92E-06,  avg # of iterations =  1.0

     negative rho (up, down):  5.498E-02 5.498E-02
 
     Magnetic moment per site:
     atom:    1    charge:    0.6414    magn:    0.0000    constr:    0.0000
     atom:    2    charge:    0.6471    magn:    0.0000    constr:    0.0000
     atom:    3    charge:    0.6365    magn:    0.0000    constr:    0.0000
     atom:    4    charge:    0.6463    magn:    0.0000    constr:    0.0000
     atom:    5    charge:    0.6345    magn:    0.0000    constr:    0.0000

     total cpu time spent up to now is        2.7 secs

     The total energy is the sum of the following terms:

     one-electron contribution =     -30.01184825 Ry
     hartree contribution      =      13.66654888 Ry
     xc contribution           =      -7.96699618 Ry
     ewald contribution        =       0.88693575 Ry

     total energy              =     -23.44106147 Ry
     Harris-Foulkes estimate   =     -23.44116770 Ry
     estimated scf accuracy    <       0.00018101 Ry

     total magnetization       =     0.00 Bohr mag/cell
     absolute magnetization    =     0.00 Bohr mag/cell

     iteration #  3     ecut=    18.00 Ry     beta=0.30
     Davidson diagonalization with overlap
     ethr =  2.26E-06,  avg # of iterations =  2.0

     negative rho (up, down):  5.499E-02 5.499E-02
 
     Magnetic moment per site:
     atom:    1    charge:    0.6416    magn:    0.0000    constr:    0.0000
     atom:    2    charge:    0.6469    magn:    0.0000    constr:    0.0000
     atom:    3    charge:    0.6363    magn:    0.0000    constr:    0.0000
     atom:    4    charge:    0.6462    magn:    0.0000    constr:    0.0000
     atom:    5    charge:    0.6343    magn:    0.0000    constr:    0.0000

     total cpu time spent up to now is        2.7 secs

     The total energy is the sum of the following terms:

     one-electron contribution =     -30.02764076 Ry
     hartree contribution      =      13.66703422 Ry
     xc contribution           =      -7.96695929 Ry
     ewald contribution        =       0.88693575 Ry

     total energy              =     -23.44110329 Ry
     Harris-Foulkes estimate   =     -23.44110415 Ry
     estimated scf accuracy    <       0.00000598 Ry

     total magnetization       =     0.00 Bohr mag/cell
     absolute magnetization    =     0.00 Bohr mag/cell

     iteration #  4     ecut=    18.00 Ry     beta=0.30
     Davidson diagonalization with overlap
     ethr =  7.48E-08,  avg # of iterations =  1.0

     negative rho (up, down):  5.504E-02 5.504E-02
 
     Magnetic moment per site:
     atom:    1    charge:    0.6421    magn:    0.0000    constr:    0.0000
     atom:    2    charge:    0.6465    magn:    0.0000    constr:    0.0000
     atom:    3    charge:    0.6359    magn:    0.0000    constr:    0.0000
     atom:    4    charge:    0.6458    magn:    0.0000    constr:    0.0000
     atom:    5    charge:    0.6339    magn:    0.0000    constr:    0.0000

     total cpu time spent up to now is        2.8 secs

     The total energy is the sum of the following terms:

     one-electron contribution =     -30.02754982 Ry
     hartree contribution      =      13.66666796 Ry
     xc contribution           =      -7.96644774 Ry
     ewald contribution        =       0.88693575 Ry

     total energy              =     -23.44110233 Ry
     Harris-Foulkes estimate   =     -23.44110374 Ry
     estimated scf accuracy    <       0.00000396 Ry

     total magnetization       =     0.00 Bohr mag/cell
     absolute magnetization    =     0.00 Bohr mag/cell

     iteration #  5     ecut=    18.00 Ry     beta=0.30
     Davidson diagonalization with overlap
     ethr =  4.95E-08,  avg # of iterations =  1.0

     negative rho (up, down):  5.505E-02 5.505E-02
 
     Magnetic moment per site:
     atom:    1    charge:    0.6425    magn:    0.0000    constr:    0.0000
     atom:    2    charge:    0.6461    magn:    0.0000    constr:    0.0000
     atom:    3    charge:    0.6355    magn:    0.0000    constr:    0.0000
     atom:    4    charge:    0.6454    magn:    0.0000    constr:    0.0000
     atom:    5    charge:    0.6335    magn:    0.0000    constr:    0.0000

     total cpu time spent up to now is        2.8 secs

     End of self-consistent calculation

 ------ SPIN UP ------------


          k = 0.0000 0.0000 0.0000 (  1473 PWs)   bands (ev):

   -23.4310 -16.5252 -16.3690 -16.3558

 ------ SPIN DOWN ----------


          k = 0.0000 0.0000 0.0000 (  1473 PWs)   bands (ev):

   -23.4310 -16.5252 -16.3690 -16.3558

     highest occupied level (ev):   -16.3558

     The total energy is the sum of the following terms:

     one-electron contribution =     -30.02648613 Ry
     hartree contribution      =      13.66364141 Ry
     xc contribution           =      -7.96519328 Ry
     ewald contribution        =       0.88693575 Ry

!    total energy              =     -23.44110224 Ry
     Harris-Foulkes estimate   =     -23.44110257 Ry
     estimated scf accuracy    <       0.00000078 Ry

     The total energy is the sum of the following terms:

     one-electron contribution =     -30.02648613 Ry
     hartree contribution      =      13.66364141 Ry
     xc contribution           =      -7.96519328 Ry
     ewald contribution        =       0.88693575 Ry
     electric field correction =       0.00000000 Ry

     total magnetization       =     0.00 Bohr mag/cell
     absolute magnetization    =     0.00 Bohr mag/cell

     convergence has been achieved in   5 iterations
 
     Using a distance-based cell
     Adding the potential well
        Amplitude [Ry a.u.] : -1.8008E+00
        Atom selected :           1
        Well size     :  2.6456E+00
 
 
     Using a distance-based cell
     Adding the potential well
        Amplitude [Ry a.u.] : -1.8008E+00
        Atom selected :           1
        Well size     :  2.6456E+00
 
     E field correction :    10.7887150326106       Ry
     #e's   in well     :    5.99110155608340       electrons

     Writing output data file si.save
 
     init_run     :      0.18s CPU      0.26s WALL (       1 calls)
     electrons    :      2.17s CPU      2.22s WALL (       4 calls)
     update_pot   :      0.08s CPU      0.11s WALL (       3 calls)

     Called by init_run:
     wfcinit      :      0.00s CPU      0.01s WALL (       1 calls)
     potinit      :      0.02s CPU      0.02s WALL (       1 calls)

     Called by electrons:
     c_bands      :      0.37s CPU      0.41s WALL (      37 calls)
     sum_band     :      0.58s CPU      0.58s WALL (      37 calls)
     v_of_rho     :      0.56s CPU      0.61s WALL (      41 calls)
     newd         :      0.56s CPU      0.57s WALL (      41 calls)
     mix_rho      :      0.08s CPU      0.08s WALL (      37 calls)

     Called by c_bands:
     init_us_2    :      0.02s CPU      0.02s WALL (     150 calls)
     regterg      :      0.33s CPU      0.37s WALL (      74 calls)

     Called by *egterg:
     h_psi        :      0.16s CPU      0.20s WALL (     218 calls)
     s_psi        :      0.01s CPU      0.01s WALL (     218 calls)
     g_psi        :      0.00s CPU      0.00s WALL (     142 calls)
     rdiaghg      :      0.11s CPU      0.11s WALL (     210 calls)

     Called by h_psi:
     add_vuspsi   :      0.01s CPU      0.01s WALL (     218 calls)

     General routines
     calbec       :      0.01s CPU      0.02s WALL (     292 calls)
     fft          :      0.41s CPU      0.44s WALL (    1003 calls)
     fftw         :      0.16s CPU      0.20s WALL (    1012 calls)
     davcio       :      0.00s CPU      0.00s WALL (       2 calls)
 
     Parallel routines
     fft_scatter  :      0.28s CPU      0.30s WALL (    2015 calls)
 
     PWSCF        :     2.60s CPU         2.85s WALL

 
   This run was terminated on:  11:48:19  10Jun2015            

=------------------------------------------------------------------------------=
   JOB DONE.
=------------------------------------------------------------------------------=
