2016-01-08 19:44:25.122 (INFO ) [0xfff7f13c410] ibm.runjob.AbstractOptions: using properties file /bgsys/local/etc/bg.properties
2016-01-08 19:44:25.132 (INFO ) [0xfff7f13c410] ibm.runjob.AbstractOptions: max open file descriptors: 65536
2016-01-08 19:44:25.132 (INFO ) [0xfff7f13c410] ibm.runjob.AbstractOptions: core file limit: 18446744073709551615
2016-01-08 19:44:25.133 (INFO ) [0xfff7f13c410] 3110:tatu.runjob.client: scheduler job id is 692573
2016-01-08 19:44:25.140 (INFO ) [0xfff8e1a34e0] 3110:tatu.runjob.monitor: monitor started
2016-01-08 19:44:25.629 (INFO ) [0xfff8e1a34e0] 3110:tatu.runjob.monitor: task record 1457315 created
2016-01-08 19:44:25.629 (INFO ) [0xfff7f13c410] CET-02000-13331-128:3110:ibm.runjob.client.options.Parser: set local socket to runjob_mux from properties file
2016-01-08 19:44:31.464 (INFO ) [0xfff8e1a34e0] 3110:tatu.runjob.monitor: tracklib completed
2016-01-08 19:44:32.055 (INFO ) [0xfff7f13c410] CET-02000-13331-128:1513579:ibm.runjob.client.Job: job 1513579 started

     Program PWSCF v.5.1.1 starts on  8Jan2016 at 19:44:32 

     This program is part of the open-source Quantum ESPRESSO suite
     for quantum simulation of materials; please cite
         "P. Giannozzi et al., J. Phys.:Condens. Matter 21 395502 (2009);
          URL http://www.quantum-espresso.org", 
     in publications or presentations arising from this work. More details at
     http://www.quantum-espresso.org/quote

     Parallel version (MPI & OpenMP), running on    1024 processor cores
     Number of MPI processes:              1024
     Threads/MPI process:                     1
     R & G space division:  proc/nbgrp/npool/nimage =    1024
     Waiting for input...
     Reading input from standard input

     Current dimensions of program PWSCF are:
     Max number of different atomic species (ntypx) = 10
     Max number of k-points (npk) =  40000
     Max angular momentum in pseudopotentials (lmaxx) =  3
               file C.pbe-mt_fhi.UPF: wavefunction(s)  4f renormalized
               file H.pbe-mt_fhi.UPF: wavefunction(s)  2p 4f renormalized
               file Cl.pbe-mt_fhi.UPF: wavefunction(s)  4f renormalized

     gamma-point specific algorithms are used
     Message from routine setup:
     the system is metallic, specify occupations

     Subspace diagonalization in iterative solution of the eigenvalue problem:
     scalapack distributed-memory algorithm (size of sub-group: 22* 22 procs)

 
     Parallelization info
     --------------------
     sticks:   dense  smooth     PW     G-vecs:    dense   smooth      PW
     Min          52      52     11                 9332     9332    1136
     Max          54      54     14                 9394     9394    1202
     Sum       54553   54553  13637              9587919  9587919 1198487
     Tot       27277   27277   6819
 
     Generating pointlists ...
     new r_m :   0.0224 (alat units)  0.8450 (a.u.) for type    1
     new r_m :   0.0224 (alat units)  0.8450 (a.u.) for type    2
     new r_m :   0.0635 (alat units)  2.4011 (a.u.) for type    3


     bravais-lattice index     =            1
     lattice parameter (alat)  =      37.7945  a.u.
     unit-cell volume          =   53986.6767 (a.u.)^3
     number of atoms/cell      =           13
     number of atomic types    =            3
     number of electrons       =        37.00 (up:  19.00, down:  18.00)
     number of Kohn-Sham states=           40
     kinetic-energy cutoff     =     120.0000  Ry
     charge density cutoff     =     480.0000  Ry
     convergence threshold     =      1.0E-12
     mixing beta               =       0.7000
     number of iterations used =            8  plain     mixing
     Exchange-correlation      = PBE ( 1  4  3  4 0 0)
     Assuming isolated system, Martyna-Tuckerman method


     celldm(1)=  37.794523  celldm(2)=   0.000000  celldm(3)=   0.000000
     celldm(4)=   0.000000  celldm(5)=   0.000000  celldm(6)=   0.000000

     crystal axes: (cart. coord. in units of alat)
               a(1) = (   1.000000   0.000000   0.000000 )  
               a(2) = (   0.000000   1.000000   0.000000 )  
               a(3) = (   0.000000   0.000000   1.000000 )  

     reciprocal axes: (cart. coord. in units 2 pi/alat)
               b(1) = (  1.000000  0.000000  0.000000 )  
               b(2) = (  0.000000  1.000000  0.000000 )  
               b(3) = (  0.000000  0.000000  1.000000 )  


     PseudoPot. # 1 for  C read from file:
     ./C.pbe-mt_fhi.UPF
     MD5 check sum: 058ca341f9d6d5327d9962fd88a91b65
     Pseudo is Norm-conserving, Zval =  4.0
     Generated using FHI98PP, converted with fhi2upf.x v.5.0.2
     Using radial grid of  461 points,  3 beta functions with: 
                l(1) =   0
                l(2) =   1
                l(3) =   3

     PseudoPot. # 2 for  H read from file:
     ./H.pbe-mt_fhi.UPF
     MD5 check sum: a19bd5488733b3d98581df861506e80d
     Pseudo is Norm-conserving, Zval =  1.0
     Generated using FHI98PP, converted with fhi2upf.x v.5.0.2
     Using radial grid of  387 points,  3 beta functions with: 
                l(1) =   0
                l(2) =   1
                l(3) =   3

     PseudoPot. # 3 for Cl read from file:
     ./Cl.pbe-mt_fhi.UPF
     MD5 check sum: 2690b95bbfe21454a1a3af22474751ef
     Pseudo is Norm-conserving, Zval =  7.0
     Generated using FHI98PP, converted with fhi2upf.x v.5.0.2
     Using radial grid of  503 points,  3 beta functions with: 
                l(1) =   0
                l(2) =   1
                l(3) =   3

     atomic species   valence    mass     pseudopotential
        C              4.00    12.01070      C( 1.00)
        H              1.00     1.00794      H( 1.00)
        Cl             7.00     1.00000     Cl( 1.00)

     Starting magnetic structure 
     atomic species   magnetization
        C            0.000
        H            0.000
        Cl           0.000

     No symmetry found


                                    s                        frac. trans.

      isym =  1     identity                                     

 cryst.   s( 1) = (     1          0          0      )
                  (     0          1          0      )
                  (     0          0          1      )

 cart.    s( 1) = (  1.0000000  0.0000000  0.0000000 )
                  (  0.0000000  1.0000000  0.0000000 )
                  (  0.0000000  0.0000000  1.0000000 )


     point group C_1 (1)    
     there are  1 classes
     the character table:

       E    
A      1.00

     the symmetry operations in each class:
     E        1

   Cartesian axes

     site n.     atom                  positions (alat units)
         1           C   tau(   1) = (   0.0000000   0.0698500   0.0000000  )
         2           C   tau(   2) = (   0.0604900   0.0349250   0.0000000  )
         3           C   tau(   3) = (   0.0604900  -0.0349250   0.0000000  )
         4           C   tau(   4) = (   0.0000000  -0.0698500   0.0000000  )
         5           C   tau(   5) = (  -0.0604900  -0.0349250   0.0000000  )
         6           C   tau(   6) = (  -0.0604900   0.0349250   0.0000000  )
         7           H   tau(   7) = (   0.0000000   0.1240500   0.0000000  )
         8           H   tau(   8) = (   0.1074300   0.0620250   0.0000000  )
         9           H   tau(   9) = (   0.1074300  -0.0620250   0.0000000  )
        10           H   tau(  10) = (   0.0000000  -0.1240500   0.0000000  )
        11           H   tau(  11) = (  -0.1074300  -0.0620250   0.0000000  )
        12           H   tau(  12) = (  -0.1074300   0.0620250   0.0000000  )
        13           Cl  tau(  13) = (   0.0302450   0.0523875   0.1500000  )

   Crystallographic axes

     site n.     atom                  positions (cryst. coord.)
         1           C   tau(   1) = (  0.0000000  0.0698500  0.0000000  )
         2           C   tau(   2) = (  0.0604900  0.0349250  0.0000000  )
         3           C   tau(   3) = (  0.0604900 -0.0349250  0.0000000  )
         4           C   tau(   4) = (  0.0000000 -0.0698500  0.0000000  )
         5           C   tau(   5) = ( -0.0604900 -0.0349250  0.0000000  )
         6           C   tau(   6) = ( -0.0604900  0.0349250  0.0000000  )
         7           H   tau(   7) = (  0.0000000  0.1240500  0.0000000  )
         8           H   tau(   8) = (  0.1074300  0.0620250  0.0000000  )
         9           H   tau(   9) = (  0.1074300 -0.0620250  0.0000000  )
        10           H   tau(  10) = (  0.0000000 -0.1240500  0.0000000  )
        11           H   tau(  11) = ( -0.1074300 -0.0620250  0.0000000  )
        12           H   tau(  12) = ( -0.1074300  0.0620250  0.0000000  )
        13           Cl  tau(  13) = (  0.0302450  0.0523875  0.1500000  )

     number of k points=     2
                       cart. coord. in units 2pi/alat
        k(    1) = (   0.0000000   0.0000000   0.0000000), wk =   1.0000000
        k(    2) = (   0.0000000   0.0000000   0.0000000), wk =   1.0000000

                       cryst. coord.
        k(    1) = (   0.0000000   0.0000000   0.0000000), wk =   1.0000000
        k(    2) = (   0.0000000   0.0000000   0.0000000), wk =   1.0000000

     Dense  grid:  4793960 G-vectors     FFT dimensions: ( 264, 264, 264)

     Largest allocated arrays     est. size (Mb)     dimensions
        Kohn-Sham Wavefunctions         0.35 Mb     (     572,   40)
        NL pseudopotentials             1.25 Mb     (     572,  143)
        Each V/rho on FFT grid          2.13 Mb     (   69696,   2)
        Each G-vector array             0.04 Mb     (    4670)
        G-vector shells                 0.02 Mb     (    2136)
     Largest temporary arrays     est. size (Mb)     dimensions
        Each subspace H/S matrix        0.00 Mb     (       1,    1)
        Each <psi_i|beta_j> matrix      0.04 Mb     (     143,   40)
        Arrays for rho mixing           8.51 Mb     (   69696,    8)
 
     Using Hirshfeld
        Amplitude [Ry a.u.] :  1.1821E-01
        Acceptor Fragment start :          13
        Acceptor Fragment end   :          13
        Donor Fragment start :           1
        Donor Fragment end   :          12
 

     Initial potential from superposition of free atoms
     Check: negative starting charge=(component1):   -0.003070
     Check: negative starting charge=(component2):   -0.003070

     starting charge   36.99968, renormalised to   37.00000

     negative rho (up, down):  3.070E-03 3.070E-03
     Starting wfc are  208 randomized atomic wfcs

     total cpu time spent up to now is       40.1 secs

     per-process dynamical memory:    57.0 Mb

     Self-consistent Calculation

     iteration #  1     ecut=   120.00 Ry     beta=0.70
     CG style diagonalization
     ethr =  1.00E-02,  avg # of iterations =  5.6

     negative rho (up, down):  7.968E-04 7.943E-04
 
     Magnetic moment per site:
     atom:    1    charge:    0.8549    magn:    0.0333    constr:    0.0000
     atom:    2    charge:    0.8556    magn:    0.0323    constr:    0.0000
     atom:    3    charge:    0.8872    magn:    0.0004    constr:    0.0000
     atom:    4    charge:    0.8593    magn:    0.0265    constr:    0.0000
     atom:    5    charge:    0.8607    magn:    0.0257    constr:    0.0000
     atom:    6    charge:    0.8865    magn:    0.0004    constr:    0.0000
     atom:    7    charge:    0.4401    magn:    0.0005    constr:    0.0000
     atom:    8    charge:    0.4407    magn:    0.0005    constr:    0.0000
     atom:    9    charge:    0.4416    magn:   -0.0001    constr:    0.0000
     atom:   10    charge:    0.4404    magn:    0.0005    constr:    0.0000
     atom:   11    charge:    0.4410    magn:    0.0006    constr:    0.0000
     atom:   12    charge:    0.4414    magn:    0.0001    constr:    0.0000
     atom:   13    charge:    6.6609    magn:    0.0920    constr:    0.0000

     total cpu time spent up to now is       50.9 secs

     The total energy is the sum of the following terms:

     one-electron contribution =    -696.00324730 Ry
     hartree contribution      =     351.25044980 Ry
     xc contribution           =     -30.93075459 Ry
     ewald contribution        =     268.46058250 Ry

     total energy              =    -102.46219176 Ry
     Harris-Foulkes estimate   =    -103.24726611 Ry
     estimated scf accuracy    <       1.31258533 Ry

     total magnetization       =     1.00 Bohr mag/cell
     absolute magnetization    =     1.00 Bohr mag/cell

     iteration #  2     ecut=   120.00 Ry     beta=0.70
     CG style diagonalization
     ethr =  3.55E-03,  avg # of iterations =  5.3

     negative rho (up, down):  3.731E-04 3.774E-04
 
     Magnetic moment per site:
     atom:    1    charge:    0.8520    magn:    0.0261    constr:    0.0000
     atom:    2    charge:    0.8513    magn:    0.0254    constr:    0.0000
     atom:    3    charge:    0.8425    magn:   -0.0015    constr:    0.0000
     atom:    4    charge:    0.8586    magn:    0.0177    constr:    0.0000
     atom:    5    charge:    0.8580    magn:    0.0171    constr:    0.0000
     atom:    6    charge:    0.8428    magn:   -0.0016    constr:    0.0000
     atom:    7    charge:    0.4721    magn:   -0.0002    constr:    0.0000
     atom:    8    charge:    0.4726    magn:   -0.0002    constr:    0.0000
     atom:    9    charge:    0.4741    magn:   -0.0002    constr:    0.0000
     atom:   10    charge:    0.4738    magn:   -0.0002    constr:    0.0000
     atom:   11    charge:    0.4744    magn:   -0.0001    constr:    0.0000
     atom:   12    charge:    0.4741    magn:   -0.0001    constr:    0.0000
     atom:   13    charge:    6.2827    magn:    0.3677    constr:    0.0000

     total cpu time spent up to now is       59.3 secs

     The total energy is the sum of the following terms:

     one-electron contribution =    -687.07676233 Ry
     hartree contribution      =     348.94820272 Ry
     xc contribution           =     -30.65811075 Ry
     ewald contribution        =     268.46058250 Ry

     total energy              =    -102.59506727 Ry
     Harris-Foulkes estimate   =    -102.88037949 Ry
     estimated scf accuracy    <       0.51073118 Ry

     total magnetization       =     1.00 Bohr mag/cell
     absolute magnetization    =     1.11 Bohr mag/cell

     iteration #  3     ecut=   120.00 Ry     beta=0.70
     CG style diagonalization
     ethr =  1.38E-03,  avg # of iterations =  4.6

     negative rho (up, down):  1.941E-04 1.965E-04
 
     Magnetic moment per site:
     atom:    1    charge:    0.8379    magn:    0.0327    constr:    0.0000
     atom:    2    charge:    0.8378    magn:    0.0317    constr:    0.0000
     atom:    3    charge:    0.8358    magn:   -0.0029    constr:    0.0000
     atom:    4    charge:    0.8365    magn:    0.0253    constr:    0.0000
     atom:    5    charge:    0.8363    magn:    0.0245    constr:    0.0000
     atom:    6    charge:    0.8359    magn:   -0.0030    constr:    0.0000
     atom:    7    charge:    0.4846    magn:   -0.0003    constr:    0.0000
     atom:    8    charge:    0.4852    magn:   -0.0003    constr:    0.0000
     atom:    9    charge:    0.4881    magn:   -0.0002    constr:    0.0000
     atom:   10    charge:    0.4864    magn:   -0.0001    constr:    0.0000
     atom:   11    charge:    0.4870    magn:   -0.0001    constr:    0.0000
     atom:   12    charge:    0.4880    magn:   -0.0001    constr:    0.0000
     atom:   13    charge:    6.4491    magn:    0.2935    constr:    0.0000

     total cpu time spent up to now is       66.6 secs

     The total energy is the sum of the following terms:

     one-electron contribution =    -687.69668674 Ry
     hartree contribution      =     348.12953998 Ry
     xc contribution           =     -30.68819526 Ry
     ewald contribution        =     268.46058250 Ry

     total energy              =    -102.71420611 Ry
     Harris-Foulkes estimate   =    -102.84285511 Ry
     estimated scf accuracy    <       0.30873922 Ry

     total magnetization       =     1.00 Bohr mag/cell
     absolute magnetization    =     1.12 Bohr mag/cell

     iteration #  4     ecut=   120.00 Ry     beta=0.70
     CG style diagonalization
     ethr =  8.34E-04,  avg # of iterations =  3.4

     negative rho (up, down):  5.142E-05 5.211E-05
 
     Magnetic moment per site:
     atom:    1    charge:    0.8309    magn:    0.0364    constr:    0.0000
     atom:    2    charge:    0.8307    magn:    0.0356    constr:    0.0000
     atom:    3    charge:    0.8411    magn:   -0.0043    constr:    0.0000
     atom:    4    charge:    0.8386    magn:    0.0245    constr:    0.0000
     atom:    5    charge:    0.8384    magn:    0.0239    constr:    0.0000
     atom:    6    charge:    0.8410    magn:   -0.0043    constr:    0.0000
     atom:    7    charge:    0.4903    magn:   -0.0005    constr:    0.0000
     atom:    8    charge:    0.4908    magn:   -0.0005    constr:    0.0000
     atom:    9    charge:    0.4920    magn:   -0.0002    constr:    0.0000
     atom:   10    charge:    0.4928    magn:   -0.0005    constr:    0.0000
     atom:   11    charge:    0.4933    magn:   -0.0004    constr:    0.0000
     atom:   12    charge:    0.4919    magn:   -0.0002    constr:    0.0000
     atom:   13    charge:    6.4449    magn:    0.3445    constr:    0.0000

     total cpu time spent up to now is       72.4 secs

     The total energy is the sum of the following terms:

     one-electron contribution =    -690.10982490 Ry
     hartree contribution      =     348.80471304 Ry
     xc contribution           =     -30.76951450 Ry
     ewald contribution        =     268.46058250 Ry

     total energy              =    -102.75631750 Ry
     Harris-Foulkes estimate   =    -102.76457219 Ry
     estimated scf accuracy    <       0.01777081 Ry

     total magnetization       =     1.00 Bohr mag/cell
     absolute magnetization    =     1.12 Bohr mag/cell

     iteration #  5     ecut=   120.00 Ry     beta=0.70
     CG style diagonalization
     c_bands:  2 eigenvalues not converged
     c_bands:  1 eigenvalues not converged
     ethr =  4.80E-05,  avg # of iterations =  6.6

     negative rho (up, down):  1.922E-05 1.958E-05
 
     Magnetic moment per site:
     atom:    1    charge:    0.8356    magn:    0.0394    constr:    0.0000
     atom:    2    charge:    0.8355    magn:    0.0388    constr:    0.0000
     atom:    3    charge:    0.8413    magn:   -0.0057    constr:    0.0000
     atom:    4    charge:    0.8370    magn:    0.0254    constr:    0.0000
     atom:    5    charge:    0.8369    magn:    0.0248    constr:    0.0000
     atom:    6    charge:    0.8413    magn:   -0.0057    constr:    0.0000
     atom:    7    charge:    0.4901    magn:   -0.0008    constr:    0.0000
     atom:    8    charge:    0.4907    magn:   -0.0008    constr:    0.0000
     atom:    9    charge:    0.4914    magn:   -0.0002    constr:    0.0000
     atom:   10    charge:    0.4924    magn:   -0.0007    constr:    0.0000
     atom:   11    charge:    0.4929    magn:   -0.0006    constr:    0.0000
     atom:   12    charge:    0.4914    magn:   -0.0002    constr:    0.0000
     atom:   13    charge:    6.4522    magn:    0.3467    constr:    0.0000

     total cpu time spent up to now is       82.4 secs

     The total energy is the sum of the following terms:

     one-electron contribution =    -689.45318491 Ry
     hartree contribution      =     348.94357840 Ry
     xc contribution           =     -30.78637759 Ry
     ewald contribution        =     268.46058250 Ry

     total energy              =    -102.76060683 Ry
     Harris-Foulkes estimate   =    -102.76287370 Ry
     estimated scf accuracy    <       0.00616099 Ry

     total magnetization       =     1.00 Bohr mag/cell
     absolute magnetization    =     1.16 Bohr mag/cell

     iteration #  6     ecut=   120.00 Ry     beta=0.70
     CG style diagonalization
     c_bands:  1 eigenvalues not converged
     ethr =  1.67E-05,  avg # of iterations =  4.6

     negative rho (up, down):  7.093E-06 7.237E-06
 
     Magnetic moment per site:
     atom:    1    charge:    0.8359    magn:    0.0417    constr:    0.0000
     atom:    2    charge:    0.8359    magn:    0.0412    constr:    0.0000
     atom:    3    charge:    0.8410    magn:   -0.0066    constr:    0.0000
     atom:    4    charge:    0.8389    magn:    0.0254    constr:    0.0000
     atom:    5    charge:    0.8389    magn:    0.0250    constr:    0.0000
     atom:    6    charge:    0.8410    magn:   -0.0066    constr:    0.0000
     atom:    7    charge:    0.4894    magn:   -0.0011    constr:    0.0000
     atom:    8    charge:    0.4899    magn:   -0.0011    constr:    0.0000
     atom:    9    charge:    0.4910    magn:   -0.0002    constr:    0.0000
     atom:   10    charge:    0.4918    magn:   -0.0009    constr:    0.0000
     atom:   11    charge:    0.4923    magn:   -0.0008    constr:    0.0000
     atom:   12    charge:    0.4910    magn:   -0.0002    constr:    0.0000
     atom:   13    charge:    6.4577    magn:    0.3476    constr:    0.0000

     total cpu time spent up to now is       89.8 secs

     The total energy is the sum of the following terms:

     one-electron contribution =    -689.43434040 Ry
     hartree contribution      =     348.96481176 Ry
     xc contribution           =     -30.79241694 Ry
     ewald contribution        =     268.46058250 Ry

     total energy              =    -102.76178188 Ry
     Harris-Foulkes estimate   =    -102.76199536 Ry
     estimated scf accuracy    <       0.00070161 Ry

     total magnetization       =     1.00 Bohr mag/cell
     absolute magnetization    =     1.17 Bohr mag/cell

     iteration #  7     ecut=   120.00 Ry     beta=0.70
     CG style diagonalization
     ethr =  1.90E-06,  avg # of iterations =  5.7

     negative rho (up, down):  1.615E-06 1.641E-06
 
     Magnetic moment per site:
     atom:    1    charge:    0.8363    magn:    0.0432    constr:    0.0000
     atom:    2    charge:    0.8362    magn:    0.0428    constr:    0.0000
     atom:    3    charge:    0.8415    magn:   -0.0076    constr:    0.0000
     atom:    4    charge:    0.8391    magn:    0.0253    constr:    0.0000
     atom:    5    charge:    0.8390    magn:    0.0249    constr:    0.0000
     atom:    6    charge:    0.8415    magn:   -0.0076    constr:    0.0000
     atom:    7    charge:    0.4891    magn:   -0.0014    constr:    0.0000
     atom:    8    charge:    0.4896    magn:   -0.0014    constr:    0.0000
     atom:    9    charge:    0.4910    magn:   -0.0001    constr:    0.0000
     atom:   10    charge:    0.4913    magn:   -0.0010    constr:    0.0000
     atom:   11    charge:    0.4918    magn:   -0.0010    constr:    0.0000
     atom:   12    charge:    0.4910    magn:   -0.0001    constr:    0.0000
     atom:   13    charge:    6.4542    magn:    0.3552    constr:    0.0000

     total cpu time spent up to now is       98.5 secs

     The total energy is the sum of the following terms:

     one-electron contribution =    -689.46402973 Ry
     hartree contribution      =     348.98764564 Ry
     xc contribution           =     -30.79339095 Ry
     ewald contribution        =     268.46058250 Ry

     total energy              =    -102.76198121 Ry
     Harris-Foulkes estimate   =    -102.76198379 Ry
     estimated scf accuracy    <       0.00015729 Ry

     total magnetization       =     1.00 Bohr mag/cell
     absolute magnetization    =     1.19 Bohr mag/cell

     iteration #  8     ecut=   120.00 Ry     beta=0.70
     CG style diagonalization
     ethr =  4.25E-07,  avg # of iterations =  5.3

     negative rho (up, down):  1.029E-06 1.035E-06
 
     Magnetic moment per site:
     atom:    1    charge:    0.8361    magn:    0.0448    constr:    0.0000
     atom:    2    charge:    0.8361    magn:    0.0445    constr:    0.0000
     atom:    3    charge:    0.8415    magn:   -0.0085    constr:    0.0000
     atom:    4    charge:    0.8391    magn:    0.0253    constr:    0.0000
     atom:    5    charge:    0.8390    magn:    0.0250    constr:    0.0000
     atom:    6    charge:    0.8415    magn:   -0.0084    constr:    0.0000
     atom:    7    charge:    0.4891    magn:   -0.0017    constr:    0.0000
     atom:    8    charge:    0.4897    magn:   -0.0017    constr:    0.0000
     atom:    9    charge:    0.4908    magn:    0.0000    constr:    0.0000
     atom:   10    charge:    0.4912    magn:   -0.0012    constr:    0.0000
     atom:   11    charge:    0.4918    magn:   -0.0011    constr:    0.0000
     atom:   12    charge:    0.4908    magn:    0.0000    constr:    0.0000
     atom:   13    charge:    6.4555    magn:    0.3562    constr:    0.0000

     total cpu time spent up to now is      106.7 secs

     The total energy is the sum of the following terms:

     one-electron contribution =    -689.38557203 Ry
     hartree contribution      =     348.97865801 Ry
     xc contribution           =     -30.79338770 Ry
     ewald contribution        =     268.46058250 Ry

     total energy              =    -102.76203289 Ry
     Harris-Foulkes estimate   =    -102.76202859 Ry
     estimated scf accuracy    <       0.00003412 Ry

     total magnetization       =     1.00 Bohr mag/cell
     absolute magnetization    =     1.19 Bohr mag/cell

     iteration #  9     ecut=   120.00 Ry     beta=0.70
     CG style diagonalization
     ethr =  9.22E-08,  avg # of iterations =  6.6

     negative rho (up, down):  1.779E-07 1.811E-07
 
     Magnetic moment per site:
     atom:    1    charge:    0.8361    magn:    0.0451    constr:    0.0000
     atom:    2    charge:    0.8361    magn:    0.0449    constr:    0.0000
     atom:    3    charge:    0.8415    magn:   -0.0088    constr:    0.0000
     atom:    4    charge:    0.8390    magn:    0.0252    constr:    0.0000
     atom:    5    charge:    0.8389    magn:    0.0250    constr:    0.0000
     atom:    6    charge:    0.8415    magn:   -0.0087    constr:    0.0000
     atom:    7    charge:    0.4892    magn:   -0.0017    constr:    0.0000
     atom:    8    charge:    0.4897    magn:   -0.0017    constr:    0.0000
     atom:    9    charge:    0.4909    magn:    0.0000    constr:    0.0000
     atom:   10    charge:    0.4913    magn:   -0.0012    constr:    0.0000
     atom:   11    charge:    0.4919    magn:   -0.0012    constr:    0.0000
     atom:   12    charge:    0.4909    magn:    0.0000    constr:    0.0000
     atom:   13    charge:    6.4549    magn:    0.3572    constr:    0.0000

     total cpu time spent up to now is      116.5 secs

     The total energy is the sum of the following terms:

     one-electron contribution =    -689.41550946 Ry
     hartree contribution      =     348.97970606 Ry
     xc contribution           =     -30.79358134 Ry
     ewald contribution        =     268.46058250 Ry

     total energy              =    -102.76204769 Ry
     Harris-Foulkes estimate   =    -102.76204903 Ry
     estimated scf accuracy    <       0.00001148 Ry

     total magnetization       =     1.00 Bohr mag/cell
     absolute magnetization    =     1.20 Bohr mag/cell

     iteration # 10     ecut=   120.00 Ry     beta=0.70
     CG style diagonalization
     ethr =  3.10E-08,  avg # of iterations =  5.9

     negative rho (up, down):  3.253E-08 3.349E-08
 
     Magnetic moment per site:
     atom:    1    charge:    0.8361    magn:    0.0455    constr:    0.0000
     atom:    2    charge:    0.8360    magn:    0.0454    constr:    0.0000
     atom:    3    charge:    0.8415    magn:   -0.0091    constr:    0.0000
     atom:    4    charge:    0.8389    magn:    0.0252    constr:    0.0000
     atom:    5    charge:    0.8389    magn:    0.0250    constr:    0.0000
     atom:    6    charge:    0.8415    magn:   -0.0091    constr:    0.0000
     atom:    7    charge:    0.4892    magn:   -0.0018    constr:    0.0000
     atom:    8    charge:    0.4898    magn:   -0.0018    constr:    0.0000
     atom:    9    charge:    0.4909    magn:    0.0001    constr:    0.0000
     atom:   10    charge:    0.4914    magn:   -0.0012    constr:    0.0000
     atom:   11    charge:    0.4919    magn:   -0.0012    constr:    0.0000
     atom:   12    charge:    0.4909    magn:    0.0001    constr:    0.0000
     atom:   13    charge:    6.4549    magn:    0.3573    constr:    0.0000

     total cpu time spent up to now is      125.3 secs

     The total energy is the sum of the following terms:

     one-electron contribution =    -689.40335363 Ry
     hartree contribution      =     348.97725497 Ry
     xc contribution           =     -30.79360008 Ry
     ewald contribution        =     268.46058250 Ry

     total energy              =    -102.76205044 Ry
     Harris-Foulkes estimate   =    -102.76204986 Ry
     estimated scf accuracy    <       0.00000052 Ry

     total magnetization       =     1.00 Bohr mag/cell
     absolute magnetization    =     1.21 Bohr mag/cell

     iteration # 11     ecut=   120.00 Ry     beta=0.70
     CG style diagonalization
     ethr =  1.39E-09,  avg # of iterations =  8.0

     negative rho (up, down):  1.557E-08 1.609E-08
 
     Magnetic moment per site:
     atom:    1    charge:    0.8361    magn:    0.0457    constr:    0.0000
     atom:    2    charge:    0.8361    magn:    0.0455    constr:    0.0000
     atom:    3    charge:    0.8415    magn:   -0.0092    constr:    0.0000
     atom:    4    charge:    0.8389    magn:    0.0252    constr:    0.0000
     atom:    5    charge:    0.8389    magn:    0.0251    constr:    0.0000
     atom:    6    charge:    0.8415    magn:   -0.0092    constr:    0.0000
     atom:    7    charge:    0.4892    magn:   -0.0019    constr:    0.0000
     atom:    8    charge:    0.4898    magn:   -0.0018    constr:    0.0000
     atom:    9    charge:    0.4909    magn:    0.0001    constr:    0.0000
     atom:   10    charge:    0.4914    magn:   -0.0012    constr:    0.0000
     atom:   11    charge:    0.4919    magn:   -0.0012    constr:    0.0000
     atom:   12    charge:    0.4909    magn:    0.0001    constr:    0.0000
     atom:   13    charge:    6.4549    magn:    0.3573    constr:    0.0000

     total cpu time spent up to now is      136.8 secs

     The total energy is the sum of the following terms:

     one-electron contribution =    -689.40762649 Ry
     hartree contribution      =     348.97779746 Ry
     xc contribution           =     -30.79369397 Ry
     ewald contribution        =     268.46058250 Ry

     total energy              =    -102.76205136 Ry
     Harris-Foulkes estimate   =    -102.76205129 Ry
     estimated scf accuracy    <       0.00000014 Ry

     total magnetization       =     1.00 Bohr mag/cell
     absolute magnetization    =     1.21 Bohr mag/cell

     iteration # 12     ecut=   120.00 Ry     beta=0.70
     CG style diagonalization
     ethr =  3.72E-10,  avg # of iterations =  5.6
 
     Magnetic moment per site:
     atom:    1    charge:    0.8361    magn:    0.0458    constr:    0.0000
     atom:    2    charge:    0.8361    magn:    0.0457    constr:    0.0000
     atom:    3    charge:    0.8415    magn:   -0.0094    constr:    0.0000
     atom:    4    charge:    0.8389    magn:    0.0252    constr:    0.0000
     atom:    5    charge:    0.8389    magn:    0.0251    constr:    0.0000
     atom:    6    charge:    0.8415    magn:   -0.0093    constr:    0.0000
     atom:    7    charge:    0.4892    magn:   -0.0019    constr:    0.0000
     atom:    8    charge:    0.4897    magn:   -0.0019    constr:    0.0000
     atom:    9    charge:    0.4909    magn:    0.0001    constr:    0.0000
     atom:   10    charge:    0.4914    magn:   -0.0012    constr:    0.0000
     atom:   11    charge:    0.4919    magn:   -0.0012    constr:    0.0000
     atom:   12    charge:    0.4909    magn:    0.0001    constr:    0.0000
     atom:   13    charge:    6.4550    magn:    0.3572    constr:    0.0000

     total cpu time spent up to now is      145.2 secs

     The total energy is the sum of the following terms:

     one-electron contribution =    -689.40646021 Ry
     hartree contribution      =     348.97811709 Ry
     xc contribution           =     -30.79376918 Ry
     ewald contribution        =     268.46058250 Ry

     total energy              =    -102.76205145 Ry
     Harris-Foulkes estimate   =    -102.76205142 Ry
     estimated scf accuracy    <       0.00000008 Ry

     total magnetization       =     1.00 Bohr mag/cell
     absolute magnetization    =     1.21 Bohr mag/cell

     iteration # 13     ecut=   120.00 Ry     beta=0.70
     CG style diagonalization
     ethr =  2.12E-10,  avg # of iterations =  6.7
 
     Magnetic moment per site:
     atom:    1    charge:    0.8361    magn:    0.0458    constr:    0.0000
     atom:    2    charge:    0.8361    magn:    0.0458    constr:    0.0000
     atom:    3    charge:    0.8415    magn:   -0.0094    constr:    0.0000
     atom:    4    charge:    0.8389    magn:    0.0252    constr:    0.0000
     atom:    5    charge:    0.8389    magn:    0.0251    constr:    0.0000
     atom:    6    charge:    0.8415    magn:   -0.0094    constr:    0.0000
     atom:    7    charge:    0.4892    magn:   -0.0019    constr:    0.0000
     atom:    8    charge:    0.4897    magn:   -0.0019    constr:    0.0000
     atom:    9    charge:    0.4909    magn:    0.0001    constr:    0.0000
     atom:   10    charge:    0.4914    magn:   -0.0012    constr:    0.0000
     atom:   11    charge:    0.4919    magn:   -0.0012    constr:    0.0000
     atom:   12    charge:    0.4909    magn:    0.0001    constr:    0.0000
     atom:   13    charge:    6.4550    magn:    0.3571    constr:    0.0000

     total cpu time spent up to now is      155.0 secs

     The total energy is the sum of the following terms:

     one-electron contribution =    -689.40582732 Ry
     hartree contribution      =     348.97778650 Ry
     xc contribution           =     -30.79375828 Ry
     ewald contribution        =     268.46058250 Ry

     total energy              =    -102.76205149 Ry
     Harris-Foulkes estimate   =    -102.76205149 Ry
     estimated scf accuracy    <       0.00000003 Ry

     total magnetization       =     1.00 Bohr mag/cell
     absolute magnetization    =     1.21 Bohr mag/cell

     iteration # 14     ecut=   120.00 Ry     beta=0.70
     CG style diagonalization
     ethr =  7.03E-11,  avg # of iterations =  7.0
 
     Magnetic moment per site:
     atom:    1    charge:    0.8361    magn:    0.0458    constr:    0.0000
     atom:    2    charge:    0.8361    magn:    0.0458    constr:    0.0000
     atom:    3    charge:    0.8415    magn:   -0.0094    constr:    0.0000
     atom:    4    charge:    0.8389    magn:    0.0252    constr:    0.0000
     atom:    5    charge:    0.8389    magn:    0.0251    constr:    0.0000
     atom:    6    charge:    0.8415    magn:   -0.0094    constr:    0.0000
     atom:    7    charge:    0.4892    magn:   -0.0019    constr:    0.0000
     atom:    8    charge:    0.4897    magn:   -0.0019    constr:    0.0000
     atom:    9    charge:    0.4909    magn:    0.0001    constr:    0.0000
     atom:   10    charge:    0.4914    magn:   -0.0012    constr:    0.0000
     atom:   11    charge:    0.4919    magn:   -0.0012    constr:    0.0000
     atom:   12    charge:    0.4909    magn:    0.0001    constr:    0.0000
     atom:   13    charge:    6.4550    magn:    0.3571    constr:    0.0000

     total cpu time spent up to now is      165.2 secs

     The total energy is the sum of the following terms:

     one-electron contribution =    -689.40636237 Ry
     hartree contribution      =     348.97768848 Ry
     xc contribution           =     -30.79374630 Ry
     ewald contribution        =     268.46058250 Ry

     total energy              =    -102.76205150 Ry
     Harris-Foulkes estimate   =    -102.76205150 Ry
     estimated scf accuracy    <          4.6E-09 Ry

     total magnetization       =     1.00 Bohr mag/cell
     absolute magnetization    =     1.21 Bohr mag/cell

     iteration # 15     ecut=   120.00 Ry     beta=0.70
     CG style diagonalization
     ethr =  1.23E-11,  avg # of iterations =  5.5
 
     Magnetic moment per site:
     atom:    1    charge:    0.8361    magn:    0.0458    constr:    0.0000
     atom:    2    charge:    0.8361    magn:    0.0458    constr:    0.0000
     atom:    3    charge:    0.8415    magn:   -0.0094    constr:    0.0000
     atom:    4    charge:    0.8389    magn:    0.0252    constr:    0.0000
     atom:    5    charge:    0.8389    magn:    0.0252    constr:    0.0000
     atom:    6    charge:    0.8415    magn:   -0.0094    constr:    0.0000
     atom:    7    charge:    0.4892    magn:   -0.0019    constr:    0.0000
     atom:    8    charge:    0.4897    magn:   -0.0019    constr:    0.0000
     atom:    9    charge:    0.4909    magn:    0.0001    constr:    0.0000
     atom:   10    charge:    0.4914    magn:   -0.0012    constr:    0.0000
     atom:   11    charge:    0.4919    magn:   -0.0012    constr:    0.0000
     atom:   12    charge:    0.4909    magn:    0.0001    constr:    0.0000
     atom:   13    charge:    6.4550    magn:    0.3571    constr:    0.0000

     total cpu time spent up to now is      173.5 secs

     The total energy is the sum of the following terms:

     one-electron contribution =    -689.40645001 Ry
     hartree contribution      =     348.97766362 Ry
     xc contribution           =     -30.79374517 Ry
     ewald contribution        =     268.46058250 Ry

     total energy              =    -102.76205150 Ry
     Harris-Foulkes estimate   =    -102.76205150 Ry
     estimated scf accuracy    <          1.8E-09 Ry

     total magnetization       =     1.00 Bohr mag/cell
     absolute magnetization    =     1.21 Bohr mag/cell

     iteration # 16     ecut=   120.00 Ry     beta=0.70
     CG style diagonalization
     ethr =  4.89E-12,  avg # of iterations =  4.7
 
     Magnetic moment per site:
     atom:    1    charge:    0.8361    magn:    0.0458    constr:    0.0000
     atom:    2    charge:    0.8361    magn:    0.0458    constr:    0.0000
     atom:    3    charge:    0.8415    magn:   -0.0094    constr:    0.0000
     atom:    4    charge:    0.8389    magn:    0.0252    constr:    0.0000
     atom:    5    charge:    0.8389    magn:    0.0252    constr:    0.0000
     atom:    6    charge:    0.8415    magn:   -0.0094    constr:    0.0000
     atom:    7    charge:    0.4892    magn:   -0.0019    constr:    0.0000
     atom:    8    charge:    0.4897    magn:   -0.0019    constr:    0.0000
     atom:    9    charge:    0.4909    magn:    0.0001    constr:    0.0000
     atom:   10    charge:    0.4914    magn:   -0.0012    constr:    0.0000
     atom:   11    charge:    0.4919    magn:   -0.0012    constr:    0.0000
     atom:   12    charge:    0.4909    magn:    0.0001    constr:    0.0000
     atom:   13    charge:    6.4550    magn:    0.3571    constr:    0.0000

     total cpu time spent up to now is      180.7 secs

     The total energy is the sum of the following terms:

     one-electron contribution =    -689.40651584 Ry
     hartree contribution      =     348.97765755 Ry
     xc contribution           =     -30.79374623 Ry
     ewald contribution        =     268.46058250 Ry

     total energy              =    -102.76205150 Ry
     Harris-Foulkes estimate   =    -102.76205150 Ry
     estimated scf accuracy    <          4.6E-10 Ry

     total magnetization       =     1.00 Bohr mag/cell
     absolute magnetization    =     1.21 Bohr mag/cell

     iteration # 17     ecut=   120.00 Ry     beta=0.70
     CG style diagonalization
     ethr =  1.23E-12,  avg # of iterations =  5.2
 
     Magnetic moment per site:
     atom:    1    charge:    0.8361    magn:    0.0458    constr:    0.0000
     atom:    2    charge:    0.8361    magn:    0.0458    constr:    0.0000
     atom:    3    charge:    0.8415    magn:   -0.0094    constr:    0.0000
     atom:    4    charge:    0.8389    magn:    0.0252    constr:    0.0000
     atom:    5    charge:    0.8389    magn:    0.0252    constr:    0.0000
     atom:    6    charge:    0.8415    magn:   -0.0094    constr:    0.0000
     atom:    7    charge:    0.4892    magn:   -0.0019    constr:    0.0000
     atom:    8    charge:    0.4897    magn:   -0.0019    constr:    0.0000
     atom:    9    charge:    0.4909    magn:    0.0001    constr:    0.0000
     atom:   10    charge:    0.4914    magn:   -0.0012    constr:    0.0000
     atom:   11    charge:    0.4919    magn:   -0.0012    constr:    0.0000
     atom:   12    charge:    0.4909    magn:    0.0001    constr:    0.0000
     atom:   13    charge:    6.4550    magn:    0.3571    constr:    0.0000

     total cpu time spent up to now is      188.7 secs

     The total energy is the sum of the following terms:

     one-electron contribution =    -689.40652740 Ry
     hartree contribution      =     348.97765784 Ry
     xc contribution           =     -30.79374675 Ry
     ewald contribution        =     268.46058250 Ry

     total energy              =    -102.76205150 Ry
     Harris-Foulkes estimate   =    -102.76205150 Ry
     estimated scf accuracy    <          3.9E-10 Ry

     total magnetization       =     1.00 Bohr mag/cell
     absolute magnetization    =     1.21 Bohr mag/cell

     iteration # 18     ecut=   120.00 Ry     beta=0.70
     CG style diagonalization
     ethr =  1.06E-12,  avg # of iterations =  4.7
 
     Magnetic moment per site:
     atom:    1    charge:    0.8361    magn:    0.0458    constr:    0.0000
     atom:    2    charge:    0.8361    magn:    0.0458    constr:    0.0000
     atom:    3    charge:    0.8415    magn:   -0.0094    constr:    0.0000
     atom:    4    charge:    0.8389    magn:    0.0252    constr:    0.0000
     atom:    5    charge:    0.8389    magn:    0.0252    constr:    0.0000
     atom:    6    charge:    0.8415    magn:   -0.0094    constr:    0.0000
     atom:    7    charge:    0.4892    magn:   -0.0019    constr:    0.0000
     atom:    8    charge:    0.4897    magn:   -0.0019    constr:    0.0000
     atom:    9    charge:    0.4909    magn:    0.0001    constr:    0.0000
     atom:   10    charge:    0.4914    magn:   -0.0012    constr:    0.0000
     atom:   11    charge:    0.4919    magn:   -0.0012    constr:    0.0000
     atom:   12    charge:    0.4909    magn:    0.0001    constr:    0.0000
     atom:   13    charge:    6.4550    magn:    0.3571    constr:    0.0000

     total cpu time spent up to now is      195.9 secs

     The total energy is the sum of the following terms:

     one-electron contribution =    -689.40653582 Ry
     hartree contribution      =     348.97764709 Ry
     xc contribution           =     -30.79374559 Ry
     ewald contribution        =     268.46058250 Ry

     total energy              =    -102.76205150 Ry
     Harris-Foulkes estimate   =    -102.76205150 Ry
     estimated scf accuracy    <          1.5E-10 Ry

     total magnetization       =     1.00 Bohr mag/cell
     absolute magnetization    =     1.21 Bohr mag/cell

     iteration # 19     ecut=   120.00 Ry     beta=0.70
     CG style diagonalization
     ethr =  4.16E-13,  avg # of iterations =  6.1
 
     Magnetic moment per site:
     atom:    1    charge:    0.8361    magn:    0.0458    constr:    0.0000
     atom:    2    charge:    0.8361    magn:    0.0458    constr:    0.0000
     atom:    3    charge:    0.8415    magn:   -0.0094    constr:    0.0000
     atom:    4    charge:    0.8389    magn:    0.0252    constr:    0.0000
     atom:    5    charge:    0.8389    magn:    0.0252    constr:    0.0000
     atom:    6    charge:    0.8415    magn:   -0.0094    constr:    0.0000
     atom:    7    charge:    0.4892    magn:   -0.0019    constr:    0.0000
     atom:    8    charge:    0.4897    magn:   -0.0019    constr:    0.0000
     atom:    9    charge:    0.4909    magn:    0.0001    constr:    0.0000
     atom:   10    charge:    0.4914    magn:   -0.0012    constr:    0.0000
     atom:   11    charge:    0.4919    magn:   -0.0012    constr:    0.0000
     atom:   12    charge:    0.4909    magn:    0.0001    constr:    0.0000
     atom:   13    charge:    6.4550    magn:    0.3571    constr:    0.0000

     total cpu time spent up to now is      205.0 secs

     The total energy is the sum of the following terms:

     one-electron contribution =    -689.40653592 Ry
     hartree contribution      =     348.97765276 Ry
     xc contribution           =     -30.79374675 Ry
     ewald contribution        =     268.46058250 Ry

     total energy              =    -102.76205150 Ry
     Harris-Foulkes estimate   =    -102.76205150 Ry
     estimated scf accuracy    <          7.9E-11 Ry

     total magnetization       =     1.00 Bohr mag/cell
     absolute magnetization    =     1.21 Bohr mag/cell

     iteration # 20     ecut=   120.00 Ry     beta=0.70
     CG style diagonalization
     ethr =  2.15E-13,  avg # of iterations =  4.7
 
     Magnetic moment per site:
     atom:    1    charge:    0.8361    magn:    0.0458    constr:    0.0000
     atom:    2    charge:    0.8361    magn:    0.0458    constr:    0.0000
     atom:    3    charge:    0.8415    magn:   -0.0094    constr:    0.0000
     atom:    4    charge:    0.8389    magn:    0.0252    constr:    0.0000
     atom:    5    charge:    0.8389    magn:    0.0252    constr:    0.0000
     atom:    6    charge:    0.8415    magn:   -0.0094    constr:    0.0000
     atom:    7    charge:    0.4892    magn:   -0.0019    constr:    0.0000
     atom:    8    charge:    0.4897    magn:   -0.0019    constr:    0.0000
     atom:    9    charge:    0.4909    magn:    0.0001    constr:    0.0000
     atom:   10    charge:    0.4914    magn:   -0.0012    constr:    0.0000
     atom:   11    charge:    0.4919    magn:   -0.0012    constr:    0.0000
     atom:   12    charge:    0.4909    magn:    0.0001    constr:    0.0000
     atom:   13    charge:    6.4550    magn:    0.3571    constr:    0.0000

     total cpu time spent up to now is      212.2 secs

     The total energy is the sum of the following terms:

     one-electron contribution =    -689.40654389 Ry
     hartree contribution      =     348.97765207 Ry
     xc contribution           =     -30.79374669 Ry
     ewald contribution        =     268.46058250 Ry

     total energy              =    -102.76205150 Ry
     Harris-Foulkes estimate   =    -102.76205150 Ry
     estimated scf accuracy    <          1.1E-11 Ry

     total magnetization       =     1.00 Bohr mag/cell
     absolute magnetization    =     1.21 Bohr mag/cell

     iteration # 21     ecut=   120.00 Ry     beta=0.70
     CG style diagonalization
     ethr =  1.00E-13,  avg # of iterations =  5.0
 
     Magnetic moment per site:
     atom:    1    charge:    0.8361    magn:    0.0458    constr:    0.0000
     atom:    2    charge:    0.8361    magn:    0.0458    constr:    0.0000
     atom:    3    charge:    0.8415    magn:   -0.0094    constr:    0.0000
     atom:    4    charge:    0.8389    magn:    0.0252    constr:    0.0000
     atom:    5    charge:    0.8389    magn:    0.0252    constr:    0.0000
     atom:    6    charge:    0.8415    magn:   -0.0094    constr:    0.0000
     atom:    7    charge:    0.4892    magn:   -0.0019    constr:    0.0000
     atom:    8    charge:    0.4897    magn:   -0.0019    constr:    0.0000
     atom:    9    charge:    0.4909    magn:    0.0001    constr:    0.0000
     atom:   10    charge:    0.4914    magn:   -0.0012    constr:    0.0000
     atom:   11    charge:    0.4919    magn:   -0.0012    constr:    0.0000
     atom:   12    charge:    0.4909    magn:    0.0001    constr:    0.0000
     atom:   13    charge:    6.4550    magn:    0.3571    constr:    0.0000

     total cpu time spent up to now is      219.7 secs

     End of self-consistent calculation

 ------ SPIN UP ------------


          k = 0.0000 0.0000 0.0000 (599244 PWs)   bands (ev):

   -21.2152 -18.6187 -18.4030 -18.2102 -14.7063 -14.6966 -12.6848 -10.9369
   -10.8842 -10.1565  -9.9339  -9.2044  -8.0780  -8.0749  -7.2128  -6.6109
    -6.4438  -6.2367  -5.9683  -1.3596  -1.0072  -0.2890   0.2086   0.4600
     0.4732   0.5019   0.5384   0.5649   0.6601   0.6639   0.6650   0.8256
     0.8993   0.9043   0.9059   0.9092   0.9347   0.9794   1.0017   1.0261

     occupation numbers 
     1.0000   1.0000   1.0000   1.0000   1.0000   1.0000   1.0000   1.0000
     1.0000   1.0000   1.0000   1.0000   1.0000   1.0000   1.0000   1.0000
     1.0000   1.0000   1.0000   0.0000   0.0000   0.0000   0.0000   0.0000
     0.0000   0.0000   0.0000   0.0000   0.0000   0.0000   0.0000   0.0000
     0.0000   0.0000   0.0000   0.0000   0.0000   0.0000   0.0000   0.0000

 ------ SPIN DOWN ----------


          k = 0.0000 0.0000 0.0000 (599244 PWs)   bands (ev):

   -21.0576 -18.3253 -18.1647 -18.0233 -14.6151 -14.5704 -12.6499 -10.8703
   -10.8176 -10.0874  -9.9274  -8.8028  -8.0490  -8.0280  -6.5578  -6.4800
    -6.2965  -5.8441  -5.4734  -0.8366  -0.7685  -0.2418   0.2129   0.4674
     0.4787   0.5155   0.5412   0.5650   0.6651   0.6696   0.6751   0.8299
     0.8999   0.9049   0.9070   0.9100   0.9389   0.9859   1.0019   1.0263

     occupation numbers 
     1.0000   1.0000   1.0000   1.0000   1.0000   1.0000   1.0000   1.0000
     1.0000   1.0000   1.0000   1.0000   1.0000   1.0000   1.0000   1.0000
     1.0000   1.0000   0.0000   0.0000   0.0000   0.0000   0.0000   0.0000
     0.0000   0.0000   0.0000   0.0000   0.0000   0.0000   0.0000   0.0000
     0.0000   0.0000   0.0000   0.0000   0.0000   0.0000   0.0000   0.0000

     highest occupied, lowest unoccupied level (ev):    -5.8441   -5.4734

     The total energy is the sum of the following terms:

     one-electron contribution =    -689.40654280 Ry
     hartree contribution      =     348.97765554 Ry
     xc contribution           =     -30.79374674 Ry
     ewald contribution        =     268.46058250 Ry

!    total energy              =    -102.76205150 Ry
     Harris-Foulkes estimate   =    -102.76205150 Ry
     estimated scf accuracy    <          4.0E-13 Ry

     The total energy is the sum of the following terms:

     one-electron contribution =    -689.40654280 Ry
     hartree contribution      =     348.97765554 Ry
     xc contribution           =     -30.79374674 Ry
     ewald contribution        =     268.46058250 Ry

     total magnetization       =     1.00 Bohr mag/cell
     absolute magnetization    =     1.21 Bohr mag/cell

     convergence has been achieved in  21 iterations
 
     Using Hirshfeld
        Amplitude [Ry a.u.] :  1.1821E-01
        Acceptor Fragment start :          13
        Acceptor Fragment end   :          13
        Donor Fragment start :           1
        Donor Fragment end   :          12
 
 
     Using Hirshfeld
        Amplitude [Ry a.u.] :  1.1821E-01
        Acceptor Fragment start :          13
        Acceptor Fragment end   :          13
        Donor Fragment start :           1
        Donor Fragment end   :          12
 
     E field correction              : -0.2600091188320724E+01 Ry    
 
     Donor charge                    :      0.6607903012383467 e     
     Acceptor charge                 :     -0.3439545912826762 e     
     Difference of charges           :      1.0047448925210141 e     
 
     epcdft_thr                      :  0.1000000000000000E-05 e     
     Surplus(+)/deficit(-) charge    :  0.4744892521014066E-02 e     
 
     -----------------------------------------------
 
                      SCF converged but...
 
     electron localization condition NOT satisfied
     restarting scf with different applied potential
 
     New field Amp                   :  0.1172114585902947E+00 Ry    
     charge density from previous step
 
     Using Hirshfeld
        Amplitude [Ry a.u.] :  1.1721E-01
        Acceptor Fragment start :          13
        Acceptor Fragment end   :          13
        Donor Fragment start :           1
        Donor Fragment end   :          12
 

     total cpu time spent up to now is      245.0 secs

     per-process dynamical memory:    65.1 Mb

     Self-consistent Calculation

     iteration #  1     ecut=   120.00 Ry     beta=0.70
     CG style diagonalization
     ethr =  1.00E-13,  avg # of iterations = 33.5
 
     Magnetic moment per site:
     atom:    1    charge:    0.8365    magn:    0.0455    constr:    0.0000
     atom:    2    charge:    0.8364    magn:    0.0455    constr:    0.0000
     atom:    3    charge:    0.8415    magn:   -0.0094    constr:    0.0000
     atom:    4    charge:    0.8393    magn:    0.0248    constr:    0.0000
     atom:    5    charge:    0.8392    magn:    0.0249    constr:    0.0000
     atom:    6    charge:    0.8415    magn:   -0.0094    constr:    0.0000
     atom:    7    charge:    0.4892    magn:   -0.0019    constr:    0.0000
     atom:    8    charge:    0.4898    magn:   -0.0019    constr:    0.0000
     atom:    9    charge:    0.4909    magn:    0.0001    constr:    0.0000
     atom:   10    charge:    0.4914    magn:   -0.0012    constr:    0.0000
     atom:   11    charge:    0.4919    magn:   -0.0012    constr:    0.0000
     atom:   12    charge:    0.4909    magn:    0.0001    constr:    0.0000
     atom:   13    charge:    6.4482    magn:    0.3634    constr:    0.0000

     total cpu time spent up to now is      289.1 secs

     The total energy is the sum of the following terms:

     one-electron contribution =    -689.46480817 Ry
     hartree contribution      =     349.00263460 Ry
     xc contribution           =     -30.79331747 Ry
     ewald contribution        =     268.46058250 Ry

     total energy              =    -102.78400772 Ry
     Harris-Foulkes estimate   =    -102.78405773 Ry
     estimated scf accuracy    <       0.00007030 Ry

     total magnetization       =     1.00 Bohr mag/cell
     absolute magnetization    =     1.21 Bohr mag/cell

     iteration #  2     ecut=   120.00 Ry     beta=0.70
     CG style diagonalization
     ethr =  1.90E-07,  avg # of iterations =  4.6
 
     Magnetic moment per site:
     atom:    1    charge:    0.8362    magn:    0.0456    constr:    0.0000
     atom:    2    charge:    0.8361    magn:    0.0457    constr:    0.0000
     atom:    3    charge:    0.8415    magn:   -0.0094    constr:    0.0000
     atom:    4    charge:    0.8389    magn:    0.0250    constr:    0.0000
     atom:    5    charge:    0.8389    magn:    0.0251    constr:    0.0000
     atom:    6    charge:    0.8415    magn:   -0.0094    constr:    0.0000
     atom:    7    charge:    0.4893    magn:   -0.0019    constr:    0.0000
     atom:    8    charge:    0.4898    magn:   -0.0019    constr:    0.0000
     atom:    9    charge:    0.4909    magn:    0.0001    constr:    0.0000
     atom:   10    charge:    0.4914    magn:   -0.0012    constr:    0.0000
     atom:   11    charge:    0.4919    magn:   -0.0012    constr:    0.0000
     atom:   12    charge:    0.4909    magn:    0.0001    constr:    0.0000
     atom:   13    charge:    6.4535    magn:    0.3592    constr:    0.0000

     total cpu time spent up to now is      296.2 secs

     The total energy is the sum of the following terms:

     one-electron contribution =    -689.32273752 Ry
     hartree contribution      =     348.98282506 Ry
     xc contribution           =     -30.79364846 Ry
     ewald contribution        =     268.46058250 Ry

     total energy              =    -102.78395475 Ry
     Harris-Foulkes estimate   =    -102.78416034 Ry
     estimated scf accuracy    <       0.00088306 Ry

     total magnetization       =     1.00 Bohr mag/cell
     absolute magnetization    =     1.21 Bohr mag/cell

     iteration #  3     ecut=   120.00 Ry     beta=0.70
     CG style diagonalization
     ethr =  1.90E-07,  avg # of iterations =  4.0
 
     Magnetic moment per site:
     atom:    1    charge:    0.8361    magn:    0.0456    constr:    0.0000
     atom:    2    charge:    0.8361    magn:    0.0457    constr:    0.0000
     atom:    3    charge:    0.8415    magn:   -0.0094    constr:    0.0000
     atom:    4    charge:    0.8389    magn:    0.0250    constr:    0.0000
     atom:    5    charge:    0.8389    magn:    0.0251    constr:    0.0000
     atom:    6    charge:    0.8415    magn:   -0.0094    constr:    0.0000
     atom:    7    charge:    0.4893    magn:   -0.0019    constr:    0.0000
     atom:    8    charge:    0.4898    magn:   -0.0019    constr:    0.0000
     atom:    9    charge:    0.4909    magn:    0.0001    constr:    0.0000
     atom:   10    charge:    0.4914    magn:   -0.0012    constr:    0.0000
     atom:   11    charge:    0.4919    magn:   -0.0012    constr:    0.0000
     atom:   12    charge:    0.4909    magn:    0.0001    constr:    0.0000
     atom:   13    charge:    6.4535    magn:    0.3594    constr:    0.0000

     total cpu time spent up to now is      302.5 secs

     The total energy is the sum of the following terms:

     one-electron contribution =    -689.43382660 Ry
     hartree contribution      =     348.98251909 Ry
     xc contribution           =     -30.79363998 Ry
     ewald contribution        =     268.46058250 Ry

     total energy              =    -102.78404908 Ry
     Harris-Foulkes estimate   =    -102.78404925 Ry
     estimated scf accuracy    <       0.00000037 Ry

     total magnetization       =     1.00 Bohr mag/cell
     absolute magnetization    =     1.21 Bohr mag/cell

     iteration #  4     ecut=   120.00 Ry     beta=0.70
     CG style diagonalization
     ethr =  1.01E-09,  avg # of iterations =  7.2
 
     Magnetic moment per site:
     atom:    1    charge:    0.8361    magn:    0.0456    constr:    0.0000
     atom:    2    charge:    0.8361    magn:    0.0457    constr:    0.0000
     atom:    3    charge:    0.8415    magn:   -0.0094    constr:    0.0000
     atom:    4    charge:    0.8389    magn:    0.0250    constr:    0.0000
     atom:    5    charge:    0.8389    magn:    0.0250    constr:    0.0000
     atom:    6    charge:    0.8415    magn:   -0.0094    constr:    0.0000
     atom:    7    charge:    0.4893    magn:   -0.0019    constr:    0.0000
     atom:    8    charge:    0.4898    magn:   -0.0019    constr:    0.0000
     atom:    9    charge:    0.4909    magn:    0.0001    constr:    0.0000
     atom:   10    charge:    0.4914    magn:   -0.0012    constr:    0.0000
     atom:   11    charge:    0.4919    magn:   -0.0012    constr:    0.0000
     atom:   12    charge:    0.4909    magn:    0.0001    constr:    0.0000
     atom:   13    charge:    6.4535    magn:    0.3595    constr:    0.0000

     total cpu time spent up to now is      312.9 secs

     The total energy is the sum of the following terms:

     one-electron contribution =    -689.43843964 Ry
     hartree contribution      =     348.98374046 Ry
     xc contribution           =     -30.79370516 Ry
     ewald contribution        =     268.46058250 Ry

     total energy              =    -102.78404943 Ry
     Harris-Foulkes estimate   =    -102.78404954 Ry
     estimated scf accuracy    <       0.00000048 Ry

     total magnetization       =     1.00 Bohr mag/cell
     absolute magnetization    =     1.21 Bohr mag/cell

     iteration #  5     ecut=   120.00 Ry     beta=0.70
     CG style diagonalization
     ethr =  1.01E-09,  avg # of iterations =  3.1
 
     Magnetic moment per site:
     atom:    1    charge:    0.8362    magn:    0.0456    constr:    0.0000
     atom:    2    charge:    0.8361    magn:    0.0457    constr:    0.0000
     atom:    3    charge:    0.8415    magn:   -0.0094    constr:    0.0000
     atom:    4    charge:    0.8389    magn:    0.0250    constr:    0.0000
     atom:    5    charge:    0.8389    magn:    0.0250    constr:    0.0000
     atom:    6    charge:    0.8415    magn:   -0.0094    constr:    0.0000
     atom:    7    charge:    0.4892    magn:   -0.0019    constr:    0.0000
     atom:    8    charge:    0.4898    magn:   -0.0019    constr:    0.0000
     atom:    9    charge:    0.4909    magn:    0.0001    constr:    0.0000
     atom:   10    charge:    0.4914    magn:   -0.0012    constr:    0.0000
     atom:   11    charge:    0.4919    magn:   -0.0012    constr:    0.0000
     atom:   12    charge:    0.4909    magn:    0.0001    constr:    0.0000
     atom:   13    charge:    6.4535    magn:    0.3595    constr:    0.0000

     total cpu time spent up to now is      318.1 secs

     The total energy is the sum of the following terms:

     one-electron contribution =    -689.43640389 Ry
     hartree contribution      =     348.98400852 Ry
     xc contribution           =     -30.79370117 Ry
     ewald contribution        =     268.46058250 Ry

     total energy              =    -102.78404945 Ry
     Harris-Foulkes estimate   =    -102.78404947 Ry
     estimated scf accuracy    <       0.00000010 Ry

     total magnetization       =     1.00 Bohr mag/cell
     absolute magnetization    =     1.21 Bohr mag/cell

     iteration #  6     ecut=   120.00 Ry     beta=0.70
     CG style diagonalization
     ethr =  2.62E-10,  avg # of iterations =  3.4
 
     Magnetic moment per site:
     atom:    1    charge:    0.8362    magn:    0.0456    constr:    0.0000
     atom:    2    charge:    0.8361    magn:    0.0456    constr:    0.0000
     atom:    3    charge:    0.8415    magn:   -0.0094    constr:    0.0000
     atom:    4    charge:    0.8389    magn:    0.0250    constr:    0.0000
     atom:    5    charge:    0.8389    magn:    0.0250    constr:    0.0000
     atom:    6    charge:    0.8415    magn:   -0.0094    constr:    0.0000
     atom:    7    charge:    0.4892    magn:   -0.0019    constr:    0.0000
     atom:    8    charge:    0.4898    magn:   -0.0019    constr:    0.0000
     atom:    9    charge:    0.4909    magn:    0.0001    constr:    0.0000
     atom:   10    charge:    0.4914    magn:   -0.0012    constr:    0.0000
     atom:   11    charge:    0.4919    magn:   -0.0012    constr:    0.0000
     atom:   12    charge:    0.4909    magn:    0.0001    constr:    0.0000
     atom:   13    charge:    6.4535    magn:    0.3596    constr:    0.0000

     total cpu time spent up to now is      323.6 secs

     The total energy is the sum of the following terms:

     one-electron contribution =    -689.43525457 Ry
     hartree contribution      =     348.98400104 Ry
     xc contribution           =     -30.79368880 Ry
     ewald contribution        =     268.46058250 Ry

     total energy              =    -102.78404946 Ry
     Harris-Foulkes estimate   =    -102.78404946 Ry
     estimated scf accuracy    <          9.7E-09 Ry

     total magnetization       =     1.00 Bohr mag/cell
     absolute magnetization    =     1.21 Bohr mag/cell

     iteration #  7     ecut=   120.00 Ry     beta=0.70
     CG style diagonalization
     ethr =  2.62E-11,  avg # of iterations =  5.2
 
     Magnetic moment per site:
     atom:    1    charge:    0.8362    magn:    0.0456    constr:    0.0000
     atom:    2    charge:    0.8361    magn:    0.0456    constr:    0.0000
     atom:    3    charge:    0.8415    magn:   -0.0094    constr:    0.0000
     atom:    4    charge:    0.8389    magn:    0.0250    constr:    0.0000
     atom:    5    charge:    0.8389    magn:    0.0250    constr:    0.0000
     atom:    6    charge:    0.8415    magn:   -0.0094    constr:    0.0000
     atom:    7    charge:    0.4892    magn:   -0.0019    constr:    0.0000
     atom:    8    charge:    0.4898    magn:   -0.0019    constr:    0.0000
     atom:    9    charge:    0.4909    magn:    0.0001    constr:    0.0000
     atom:   10    charge:    0.4914    magn:   -0.0012    constr:    0.0000
     atom:   11    charge:    0.4919    magn:   -0.0012    constr:    0.0000
     atom:   12    charge:    0.4909    magn:    0.0001    constr:    0.0000
     atom:   13    charge:    6.4534    magn:    0.3596    constr:    0.0000

     total cpu time spent up to now is      331.5 secs

     The total energy is the sum of the following terms:

     one-electron contribution =    -689.43502694 Ry
     hartree contribution      =     348.98395151 Ry
     xc contribution           =     -30.79367547 Ry
     ewald contribution        =     268.46058250 Ry

     total energy              =    -102.78404946 Ry
     Harris-Foulkes estimate   =    -102.78404946 Ry
     estimated scf accuracy    <          2.9E-09 Ry

     total magnetization       =     1.00 Bohr mag/cell
     absolute magnetization    =     1.21 Bohr mag/cell

     iteration #  8     ecut=   120.00 Ry     beta=0.70
     CG style diagonalization
     ethr =  7.88E-12,  avg # of iterations =  4.2
 
     Magnetic moment per site:
     atom:    1    charge:    0.8362    magn:    0.0456    constr:    0.0000
     atom:    2    charge:    0.8361    magn:    0.0456    constr:    0.0000
     atom:    3    charge:    0.8415    magn:   -0.0094    constr:    0.0000
     atom:    4    charge:    0.8389    magn:    0.0250    constr:    0.0000
     atom:    5    charge:    0.8389    magn:    0.0250    constr:    0.0000
     atom:    6    charge:    0.8415    magn:   -0.0094    constr:    0.0000
     atom:    7    charge:    0.4892    magn:   -0.0019    constr:    0.0000
     atom:    8    charge:    0.4898    magn:   -0.0019    constr:    0.0000
     atom:    9    charge:    0.4909    magn:    0.0001    constr:    0.0000
     atom:   10    charge:    0.4914    magn:   -0.0012    constr:    0.0000
     atom:   11    charge:    0.4919    magn:   -0.0012    constr:    0.0000
     atom:   12    charge:    0.4909    magn:    0.0001    constr:    0.0000
     atom:   13    charge:    6.4534    magn:    0.3596    constr:    0.0000

     total cpu time spent up to now is      338.1 secs

     The total energy is the sum of the following terms:

     one-electron contribution =    -689.43499922 Ry
     hartree contribution      =     348.98398853 Ry
     xc contribution           =     -30.79367726 Ry
     ewald contribution        =     268.46058250 Ry

     total energy              =    -102.78404946 Ry
     Harris-Foulkes estimate   =    -102.78404946 Ry
     estimated scf accuracy    <          2.3E-10 Ry

     total magnetization       =     1.00 Bohr mag/cell
     absolute magnetization    =     1.21 Bohr mag/cell

     iteration #  9     ecut=   120.00 Ry     beta=0.70
     CG style diagonalization
     ethr =  6.24E-13,  avg # of iterations =  6.3
 
     Magnetic moment per site:
     atom:    1    charge:    0.8362    magn:    0.0456    constr:    0.0000
     atom:    2    charge:    0.8361    magn:    0.0456    constr:    0.0000
     atom:    3    charge:    0.8415    magn:   -0.0094    constr:    0.0000
     atom:    4    charge:    0.8389    magn:    0.0250    constr:    0.0000
     atom:    5    charge:    0.8389    magn:    0.0250    constr:    0.0000
     atom:    6    charge:    0.8415    magn:   -0.0094    constr:    0.0000
     atom:    7    charge:    0.4892    magn:   -0.0019    constr:    0.0000
     atom:    8    charge:    0.4898    magn:   -0.0019    constr:    0.0000
     atom:    9    charge:    0.4909    magn:    0.0001    constr:    0.0000
     atom:   10    charge:    0.4914    magn:   -0.0012    constr:    0.0000
     atom:   11    charge:    0.4919    magn:   -0.0012    constr:    0.0000
     atom:   12    charge:    0.4909    magn:    0.0001    constr:    0.0000
     atom:   13    charge:    6.4534    magn:    0.3596    constr:    0.0000

     total cpu time spent up to now is      347.5 secs

     The total energy is the sum of the following terms:

     one-electron contribution =    -689.43493065 Ry
     hartree contribution      =     348.98398195 Ry
     xc contribution           =     -30.79367646 Ry
     ewald contribution        =     268.46058250 Ry

     total energy              =    -102.78404946 Ry
     Harris-Foulkes estimate   =    -102.78404946 Ry
     estimated scf accuracy    <          1.7E-11 Ry

     total magnetization       =     1.00 Bohr mag/cell
     absolute magnetization    =     1.21 Bohr mag/cell

     iteration # 10     ecut=   120.00 Ry     beta=0.70
     CG style diagonalization
     ethr =  1.00E-13,  avg # of iterations =  4.8
 
     Magnetic moment per site:
     atom:    1    charge:    0.8362    magn:    0.0456    constr:    0.0000
     atom:    2    charge:    0.8361    magn:    0.0456    constr:    0.0000
     atom:    3    charge:    0.8415    magn:   -0.0094    constr:    0.0000
     atom:    4    charge:    0.8389    magn:    0.0250    constr:    0.0000
     atom:    5    charge:    0.8389    magn:    0.0250    constr:    0.0000
     atom:    6    charge:    0.8415    magn:   -0.0094    constr:    0.0000
     atom:    7    charge:    0.4892    magn:   -0.0019    constr:    0.0000
     atom:    8    charge:    0.4898    magn:   -0.0019    constr:    0.0000
     atom:    9    charge:    0.4909    magn:    0.0001    constr:    0.0000
     atom:   10    charge:    0.4914    magn:   -0.0012    constr:    0.0000
     atom:   11    charge:    0.4919    magn:   -0.0012    constr:    0.0000
     atom:   12    charge:    0.4909    magn:    0.0001    constr:    0.0000
     atom:   13    charge:    6.4534    magn:    0.3596    constr:    0.0000

     total cpu time spent up to now is      354.8 secs

     The total energy is the sum of the following terms:

     one-electron contribution =    -689.43495159 Ry
     hartree contribution      =     348.98399037 Ry
     xc contribution           =     -30.79367673 Ry
     ewald contribution        =     268.46058250 Ry

     total energy              =    -102.78404946 Ry
     Harris-Foulkes estimate   =    -102.78404946 Ry
     estimated scf accuracy    <          1.0E-11 Ry

     total magnetization       =     1.00 Bohr mag/cell
     absolute magnetization    =     1.21 Bohr mag/cell

     iteration # 11     ecut=   120.00 Ry     beta=0.70
     CG style diagonalization
     ethr =  1.00E-13,  avg # of iterations =  3.7
 
     Magnetic moment per site:
     atom:    1    charge:    0.8362    magn:    0.0456    constr:    0.0000
     atom:    2    charge:    0.8361    magn:    0.0456    constr:    0.0000
     atom:    3    charge:    0.8415    magn:   -0.0094    constr:    0.0000
     atom:    4    charge:    0.8389    magn:    0.0250    constr:    0.0000
     atom:    5    charge:    0.8389    magn:    0.0250    constr:    0.0000
     atom:    6    charge:    0.8415    magn:   -0.0094    constr:    0.0000
     atom:    7    charge:    0.4892    magn:   -0.0019    constr:    0.0000
     atom:    8    charge:    0.4898    magn:   -0.0019    constr:    0.0000
     atom:    9    charge:    0.4909    magn:    0.0001    constr:    0.0000
     atom:   10    charge:    0.4914    magn:   -0.0012    constr:    0.0000
     atom:   11    charge:    0.4919    magn:   -0.0012    constr:    0.0000
     atom:   12    charge:    0.4909    magn:    0.0001    constr:    0.0000
     atom:   13    charge:    6.4534    magn:    0.3596    constr:    0.0000

     total cpu time spent up to now is      360.7 secs

     End of self-consistent calculation

 ------ SPIN UP ------------


          k = 0.0000 0.0000 0.0000 (599244 PWs)   bands (ev):

   -21.2205 -18.6239 -18.4086 -18.2166 -14.7123 -14.7027 -12.6914 -10.9437
   -10.8898 -10.1625  -9.9410  -9.2098  -8.0844  -8.0814  -7.2191  -6.6148
    -6.4469  -6.2421  -5.9740  -1.3644  -1.0139  -0.2845   0.2081   0.4604
     0.4739   0.4966   0.5373   0.5644   0.6610   0.6642   0.6660   0.8245
     0.8987   0.9034   0.9052   0.9088   0.9336   0.9758   0.9985   1.0251

     occupation numbers 
     1.0000   1.0000   1.0000   1.0000   1.0000   1.0000   1.0000   1.0000
     1.0000   1.0000   1.0000   1.0000   1.0000   1.0000   1.0000   1.0000
     1.0000   1.0000   1.0000   0.0000   0.0000   0.0000   0.0000   0.0000
     0.0000   0.0000   0.0000   0.0000   0.0000   0.0000   0.0000   0.0000
     0.0000   0.0000   0.0000   0.0000   0.0000   0.0000   0.0000   0.0000

 ------ SPIN DOWN ----------


          k = 0.0000 0.0000 0.0000 (599244 PWs)   bands (ev):

   -21.0636 -18.3310 -18.1712 -18.0266 -14.6216 -14.5771 -12.6567 -10.8775
   -10.8235 -10.0937  -9.9345  -8.8098  -8.0555  -8.0347  -6.5616  -6.4833
    -6.2987  -5.8500  -5.4785  -0.8440  -0.7765  -0.2373   0.2125   0.4677
     0.4792   0.5108   0.5399   0.5645   0.6657   0.6708   0.6756   0.8287
     0.8993   0.9040   0.9064   0.9096   0.9378   0.9824   0.9988   1.0253

     occupation numbers 
     1.0000   1.0000   1.0000   1.0000   1.0000   1.0000   1.0000   1.0000
     1.0000   1.0000   1.0000   1.0000   1.0000   1.0000   1.0000   1.0000
     1.0000   1.0000   0.0000   0.0000   0.0000   0.0000   0.0000   0.0000
     0.0000   0.0000   0.0000   0.0000   0.0000   0.0000   0.0000   0.0000
     0.0000   0.0000   0.0000   0.0000   0.0000   0.0000   0.0000   0.0000

     highest occupied, lowest unoccupied level (ev):    -5.8500   -5.4785

     The total energy is the sum of the following terms:

     one-electron contribution =    -689.43494083 Ry
     hartree contribution      =     348.98398513 Ry
     xc contribution           =     -30.79367625 Ry
     ewald contribution        =     268.46058250 Ry

!    total energy              =    -102.78404946 Ry
     Harris-Foulkes estimate   =    -102.78404946 Ry
     estimated scf accuracy    <          3.4E-13 Ry

     The total energy is the sum of the following terms:

     one-electron contribution =    -689.43494083 Ry
     hartree contribution      =     348.98398513 Ry
     xc contribution           =     -30.79367625 Ry
     ewald contribution        =     268.46058250 Ry

     total magnetization       =     1.00 Bohr mag/cell
     absolute magnetization    =     1.21 Bohr mag/cell

     convergence has been achieved in  11 iterations
 
     Using Hirshfeld
        Amplitude [Ry a.u.] :  1.1721E-01
        Acceptor Fragment start :          13
        Acceptor Fragment end   :          13
        Donor Fragment start :           1
        Donor Fragment end   :          12
 
 
     Using Hirshfeld
        Amplitude [Ry a.u.] :  1.1721E-01
        Acceptor Fragment start :          13
        Acceptor Fragment end   :          13
        Donor Fragment start :           1
        Donor Fragment end   :          12
 
     E field correction              : -0.2578728191087414E+01 Ry    
 
     Donor charge                    :      0.6580361553864371 e     
     Acceptor charge                 :     -0.3413145727604174 e     
     Difference of charges           :      0.9993507281468546 e     
 
     epcdft_thr                      :  0.1000000000000000E-05 e     
     Surplus(+)/deficit(-) charge    : -0.6492718531454500E-03 e     
 
     -----------------------------------------------
 
                      SCF converged but...
 
     electron localization condition NOT satisfied
     restarting scf with different applied potential
 
     New field Amp                   :  0.1173318241943270E+00 Ry    
     charge density from previous step
 
     Using Hirshfeld
        Amplitude [Ry a.u.] :  1.1733E-01
        Acceptor Fragment start :          13
        Acceptor Fragment end   :          13
        Donor Fragment start :           1
        Donor Fragment end   :          12
 

     total cpu time spent up to now is      375.2 secs

     per-process dynamical memory:    65.1 Mb

     Self-consistent Calculation

     iteration #  1     ecut=   120.00 Ry     beta=0.70
     CG style diagonalization
     c_bands:  2 eigenvalues not converged
     c_bands:  1 eigenvalues not converged
     ethr =  1.00E-13,  avg # of iterations = 24.1
 
     Magnetic moment per site:
     atom:    1    charge:    0.8361    magn:    0.0456    constr:    0.0000
     atom:    2    charge:    0.8361    magn:    0.0457    constr:    0.0000
     atom:    3    charge:    0.8415    magn:   -0.0094    constr:    0.0000
     atom:    4    charge:    0.8389    magn:    0.0250    constr:    0.0000
     atom:    5    charge:    0.8389    magn:    0.0251    constr:    0.0000
     atom:    6    charge:    0.8415    magn:   -0.0094    constr:    0.0000
     atom:    7    charge:    0.4892    magn:   -0.0019    constr:    0.0000
     atom:    8    charge:    0.4898    magn:   -0.0019    constr:    0.0000
     atom:    9    charge:    0.4909    magn:    0.0001    constr:    0.0000
     atom:   10    charge:    0.4914    magn:   -0.0012    constr:    0.0000
     atom:   11    charge:    0.4919    magn:   -0.0012    constr:    0.0000
     atom:   12    charge:    0.4909    magn:    0.0001    constr:    0.0000
     atom:   13    charge:    6.4543    magn:    0.3588    constr:    0.0000

     total cpu time spent up to now is      408.7 secs

     The total energy is the sum of the following terms:

     one-electron contribution =    -689.42795608 Ry
     hartree contribution      =     348.98100230 Ry
     xc contribution           =     -30.79372879 Ry
     ewald contribution        =     268.46058250 Ry

     total energy              =    -102.78140078 Ry
     Harris-Foulkes estimate   =    -102.78140150 Ry
     estimated scf accuracy    <       0.00000101 Ry

     total magnetization       =     1.00 Bohr mag/cell
     absolute magnetization    =     1.21 Bohr mag/cell

     iteration #  2     ecut=   120.00 Ry     beta=0.70
     CG style diagonalization
     ethr =  2.73E-09,  avg # of iterations =  4.6
 
     Magnetic moment per site:
     atom:    1    charge:    0.8361    magn:    0.0456    constr:    0.0000
     atom:    2    charge:    0.8361    magn:    0.0457    constr:    0.0000
     atom:    3    charge:    0.8415    magn:   -0.0094    constr:    0.0000
     atom:    4    charge:    0.8389    magn:    0.0250    constr:    0.0000
     atom:    5    charge:    0.8389    magn:    0.0250    constr:    0.0000
     atom:    6    charge:    0.8415    magn:   -0.0094    constr:    0.0000
     atom:    7    charge:    0.4892    magn:   -0.0019    constr:    0.0000
     atom:    8    charge:    0.4898    magn:   -0.0019    constr:    0.0000
     atom:    9    charge:    0.4909    magn:    0.0001    constr:    0.0000
     atom:   10    charge:    0.4914    magn:   -0.0012    constr:    0.0000
     atom:   11    charge:    0.4919    magn:   -0.0012    constr:    0.0000
     atom:   12    charge:    0.4909    magn:    0.0001    constr:    0.0000
     atom:   13    charge:    6.4536    magn:    0.3594    constr:    0.0000

     total cpu time spent up to now is      415.7 secs

     The total energy is the sum of the following terms:

     one-electron contribution =    -689.44518093 Ry
     hartree contribution      =     348.98338364 Ry
     xc contribution           =     -30.79368950 Ry
     ewald contribution        =     268.46058250 Ry

     total energy              =    -102.78139998 Ry
     Harris-Foulkes estimate   =    -102.78140298 Ry
     estimated scf accuracy    <       0.00001300 Ry

     total magnetization       =     1.00 Bohr mag/cell
     absolute magnetization    =     1.21 Bohr mag/cell

     iteration #  3     ecut=   120.00 Ry     beta=0.70
     CG style diagonalization
     ethr =  2.73E-09,  avg # of iterations =  4.0
 
     Magnetic moment per site:
     atom:    1    charge:    0.8362    magn:    0.0456    constr:    0.0000
     atom:    2    charge:    0.8361    magn:    0.0457    constr:    0.0000
     atom:    3    charge:    0.8415    magn:   -0.0094    constr:    0.0000
     atom:    4    charge:    0.8389    magn:    0.0250    constr:    0.0000
     atom:    5    charge:    0.8389    magn:    0.0250    constr:    0.0000
     atom:    6    charge:    0.8415    magn:   -0.0094    constr:    0.0000
     atom:    7    charge:    0.4892    magn:   -0.0019    constr:    0.0000
     atom:    8    charge:    0.4898    magn:   -0.0019    constr:    0.0000
     atom:    9    charge:    0.4909    magn:    0.0001    constr:    0.0000
     atom:   10    charge:    0.4914    magn:   -0.0012    constr:    0.0000
     atom:   11    charge:    0.4919    magn:   -0.0012    constr:    0.0000
     atom:   12    charge:    0.4909    magn:    0.0001    constr:    0.0000
     atom:   13    charge:    6.4536    magn:    0.3593    constr:    0.0000

     total cpu time spent up to now is      422.0 secs

     The total energy is the sum of the following terms:

     one-electron contribution =    -689.43159903 Ry
     hartree contribution      =     348.98340566 Ry
     xc contribution           =     -30.79368938 Ry
     ewald contribution        =     268.46058250 Ry

     total energy              =    -102.78140137 Ry
     Harris-Foulkes estimate   =    -102.78140137 Ry
     estimated scf accuracy    <          5.0E-09 Ry

     total magnetization       =     1.00 Bohr mag/cell
     absolute magnetization    =     1.21 Bohr mag/cell

     iteration #  4     ecut=   120.00 Ry     beta=0.70
     CG style diagonalization
     ethr =  1.34E-11,  avg # of iterations =  7.3
 
     Magnetic moment per site:
     atom:    1    charge:    0.8362    magn:    0.0456    constr:    0.0000
     atom:    2    charge:    0.8361    magn:    0.0457    constr:    0.0000
     atom:    3    charge:    0.8415    magn:   -0.0094    constr:    0.0000
     atom:    4    charge:    0.8389    magn:    0.0250    constr:    0.0000
     atom:    5    charge:    0.8389    magn:    0.0250    constr:    0.0000
     atom:    6    charge:    0.8415    magn:   -0.0094    constr:    0.0000
     atom:    7    charge:    0.4892    magn:   -0.0019    constr:    0.0000
     atom:    8    charge:    0.4898    magn:   -0.0019    constr:    0.0000
     atom:    9    charge:    0.4909    magn:    0.0001    constr:    0.0000
     atom:   10    charge:    0.4914    magn:   -0.0012    constr:    0.0000
     atom:   11    charge:    0.4919    magn:   -0.0012    constr:    0.0000
     atom:   12    charge:    0.4909    magn:    0.0001    constr:    0.0000
     atom:   13    charge:    6.4536    magn:    0.3593    constr:    0.0000

     total cpu time spent up to now is      432.6 secs

     The total energy is the sum of the following terms:

     one-electron contribution =    -689.43107985 Ry
     hartree contribution      =     348.98326096 Ry
     xc contribution           =     -30.79368156 Ry
     ewald contribution        =     268.46058250 Ry

     total energy              =    -102.78140137 Ry
     Harris-Foulkes estimate   =    -102.78140138 Ry
     estimated scf accuracy    <          7.7E-09 Ry

     total magnetization       =     1.00 Bohr mag/cell
     absolute magnetization    =     1.21 Bohr mag/cell

     iteration #  5     ecut=   120.00 Ry     beta=0.70
     CG style diagonalization
     ethr =  1.34E-11,  avg # of iterations =  3.1
 
     Magnetic moment per site:
     atom:    1    charge:    0.8362    magn:    0.0456    constr:    0.0000
     atom:    2    charge:    0.8361    magn:    0.0457    constr:    0.0000
     atom:    3    charge:    0.8415    magn:   -0.0094    constr:    0.0000
     atom:    4    charge:    0.8389    magn:    0.0250    constr:    0.0000
     atom:    5    charge:    0.8389    magn:    0.0250    constr:    0.0000
     atom:    6    charge:    0.8415    magn:   -0.0094    constr:    0.0000
     atom:    7    charge:    0.4892    magn:   -0.0019    constr:    0.0000
     atom:    8    charge:    0.4898    magn:   -0.0019    constr:    0.0000
     atom:    9    charge:    0.4909    magn:    0.0001    constr:    0.0000
     atom:   10    charge:    0.4914    magn:   -0.0012    constr:    0.0000
     atom:   11    charge:    0.4919    magn:   -0.0012    constr:    0.0000
     atom:   12    charge:    0.4909    magn:    0.0001    constr:    0.0000
     atom:   13    charge:    6.4536    magn:    0.3593    constr:    0.0000

     total cpu time spent up to now is      437.8 secs

     The total energy is the sum of the following terms:

     one-electron contribution =    -689.43133539 Ry
     hartree contribution      =     348.98322816 Ry
     xc contribution           =     -30.79368178 Ry
     ewald contribution        =     268.46058250 Ry

     total energy              =    -102.78140138 Ry
     Harris-Foulkes estimate   =    -102.78140138 Ry
     estimated scf accuracy    <          1.6E-09 Ry

     total magnetization       =     1.00 Bohr mag/cell
     absolute magnetization    =     1.21 Bohr mag/cell

     iteration #  6     ecut=   120.00 Ry     beta=0.70
     CG style diagonalization
     ethr =  4.36E-12,  avg # of iterations =  3.3
 
     Magnetic moment per site:
     atom:    1    charge:    0.8362    magn:    0.0456    constr:    0.0000
     atom:    2    charge:    0.8361    magn:    0.0457    constr:    0.0000
     atom:    3    charge:    0.8415    magn:   -0.0094    constr:    0.0000
     atom:    4    charge:    0.8389    magn:    0.0250    constr:    0.0000
     atom:    5    charge:    0.8389    magn:    0.0250    constr:    0.0000
     atom:    6    charge:    0.8415    magn:   -0.0094    constr:    0.0000
     atom:    7    charge:    0.4892    magn:   -0.0019    constr:    0.0000
     atom:    8    charge:    0.4898    magn:   -0.0019    constr:    0.0000
     atom:    9    charge:    0.4909    magn:    0.0001    constr:    0.0000
     atom:   10    charge:    0.4914    magn:   -0.0012    constr:    0.0000
     atom:   11    charge:    0.4919    magn:   -0.0012    constr:    0.0000
     atom:   12    charge:    0.4909    magn:    0.0001    constr:    0.0000
     atom:   13    charge:    6.4536    magn:    0.3593    constr:    0.0000

     total cpu time spent up to now is      443.2 secs

     The total energy is the sum of the following terms:

     one-electron contribution =    -689.43146585 Ry
     hartree contribution      =     348.98322436 Ry
     xc contribution           =     -30.79368312 Ry
     ewald contribution        =     268.46058250 Ry

     total energy              =    -102.78140138 Ry
     Harris-Foulkes estimate   =    -102.78140138 Ry
     estimated scf accuracy    <          2.4E-10 Ry

     total magnetization       =     1.00 Bohr mag/cell
     absolute magnetization    =     1.21 Bohr mag/cell

     iteration #  7     ecut=   120.00 Ry     beta=0.70
     CG style diagonalization
     ethr =  6.36E-13,  avg # of iterations =  4.7
 
     Magnetic moment per site:
     atom:    1    charge:    0.8362    magn:    0.0456    constr:    0.0000
     atom:    2    charge:    0.8361    magn:    0.0457    constr:    0.0000
     atom:    3    charge:    0.8415    magn:   -0.0094    constr:    0.0000
     atom:    4    charge:    0.8389    magn:    0.0250    constr:    0.0000
     atom:    5    charge:    0.8389    magn:    0.0250    constr:    0.0000
     atom:    6    charge:    0.8415    magn:   -0.0094    constr:    0.0000
     atom:    7    charge:    0.4892    magn:   -0.0019    constr:    0.0000
     atom:    8    charge:    0.4898    magn:   -0.0019    constr:    0.0000
     atom:    9    charge:    0.4909    magn:    0.0001    constr:    0.0000
     atom:   10    charge:    0.4914    magn:   -0.0012    constr:    0.0000
     atom:   11    charge:    0.4919    magn:   -0.0012    constr:    0.0000
     atom:   12    charge:    0.4909    magn:    0.0001    constr:    0.0000
     atom:   13    charge:    6.4536    magn:    0.3593    constr:    0.0000

     total cpu time spent up to now is      450.4 secs

     The total energy is the sum of the following terms:

     one-electron contribution =    -689.43151195 Ry
     hartree contribution      =     348.98323084 Ry
     xc contribution           =     -30.79368492 Ry
     ewald contribution        =     268.46058250 Ry

     total energy              =    -102.78140138 Ry
     Harris-Foulkes estimate   =    -102.78140138 Ry
     estimated scf accuracy    <          4.8E-11 Ry

     total magnetization       =     1.00 Bohr mag/cell
     absolute magnetization    =     1.21 Bohr mag/cell

     iteration #  8     ecut=   120.00 Ry     beta=0.70
     CG style diagonalization
     ethr =  1.29E-13,  avg # of iterations =  4.8
 
     Magnetic moment per site:
     atom:    1    charge:    0.8362    magn:    0.0456    constr:    0.0000
     atom:    2    charge:    0.8361    magn:    0.0457    constr:    0.0000
     atom:    3    charge:    0.8415    magn:   -0.0094    constr:    0.0000
     atom:    4    charge:    0.8389    magn:    0.0250    constr:    0.0000
     atom:    5    charge:    0.8389    magn:    0.0250    constr:    0.0000
     atom:    6    charge:    0.8415    magn:   -0.0094    constr:    0.0000
     atom:    7    charge:    0.4892    magn:   -0.0019    constr:    0.0000
     atom:    8    charge:    0.4898    magn:   -0.0019    constr:    0.0000
     atom:    9    charge:    0.4909    magn:    0.0001    constr:    0.0000
     atom:   10    charge:    0.4914    magn:   -0.0012    constr:    0.0000
     atom:   11    charge:    0.4919    magn:   -0.0012    constr:    0.0000
     atom:   12    charge:    0.4909    magn:    0.0001    constr:    0.0000
     atom:   13    charge:    6.4536    magn:    0.3593    constr:    0.0000

     total cpu time spent up to now is      457.8 secs

     The total energy is the sum of the following terms:

     one-electron contribution =    -689.43151816 Ry
     hartree contribution      =     348.98322586 Ry
     xc contribution           =     -30.79368465 Ry
     ewald contribution        =     268.46058250 Ry

     total energy              =    -102.78140138 Ry
     Harris-Foulkes estimate   =    -102.78140138 Ry
     estimated scf accuracy    <          4.0E-12 Ry

     total magnetization       =     1.00 Bohr mag/cell
     absolute magnetization    =     1.21 Bohr mag/cell

     iteration #  9     ecut=   120.00 Ry     beta=0.70
     CG style diagonalization
     ethr =  1.00E-13,  avg # of iterations =  3.6
 
     Magnetic moment per site:
     atom:    1    charge:    0.8362    magn:    0.0456    constr:    0.0000
     atom:    2    charge:    0.8361    magn:    0.0457    constr:    0.0000
     atom:    3    charge:    0.8415    magn:   -0.0094    constr:    0.0000
     atom:    4    charge:    0.8389    magn:    0.0250    constr:    0.0000
     atom:    5    charge:    0.8389    magn:    0.0250    constr:    0.0000
     atom:    6    charge:    0.8415    magn:   -0.0094    constr:    0.0000
     atom:    7    charge:    0.4892    magn:   -0.0019    constr:    0.0000
     atom:    8    charge:    0.4898    magn:   -0.0019    constr:    0.0000
     atom:    9    charge:    0.4909    magn:    0.0001    constr:    0.0000
     atom:   10    charge:    0.4914    magn:   -0.0012    constr:    0.0000
     atom:   11    charge:    0.4919    magn:   -0.0012    constr:    0.0000
     atom:   12    charge:    0.4909    magn:    0.0001    constr:    0.0000
     atom:   13    charge:    6.4536    magn:    0.3593    constr:    0.0000

     total cpu time spent up to now is      463.5 secs

     End of self-consistent calculation

 ------ SPIN UP ------------


          k = 0.0000 0.0000 0.0000 (599244 PWs)   bands (ev):

   -21.2198 -18.6233 -18.4079 -18.2159 -14.7116 -14.7019 -12.6906 -10.9429
   -10.8892 -10.1618  -9.9402  -9.2091  -8.0837  -8.0806  -7.2183  -6.6143
    -6.4465  -6.2414  -5.9733  -1.3638  -1.0131  -0.2851   0.2081   0.4603
     0.4738   0.4973   0.5375   0.5645   0.6609   0.6642   0.6658   0.8247
     0.8988   0.9035   0.9053   0.9088   0.9337   0.9762   0.9989   1.0252

     occupation numbers 
     1.0000   1.0000   1.0000   1.0000   1.0000   1.0000   1.0000   1.0000
     1.0000   1.0000   1.0000   1.0000   1.0000   1.0000   1.0000   1.0000
     1.0000   1.0000   1.0000   0.0000   0.0000   0.0000   0.0000   0.0000
     0.0000   0.0000   0.0000   0.0000   0.0000   0.0000   0.0000   0.0000
     0.0000   0.0000   0.0000   0.0000   0.0000   0.0000   0.0000   0.0000

 ------ SPIN DOWN ----------


          k = 0.0000 0.0000 0.0000 (599244 PWs)   bands (ev):

   -21.0629 -18.3303 -18.1705 -18.0262 -14.6208 -14.5763 -12.6558 -10.8767
   -10.8228 -10.0929  -9.9336  -8.8090  -8.0547  -8.0339  -6.5611  -6.4829
    -6.2985  -5.8493  -5.4779  -0.8431  -0.7755  -0.2379   0.2125   0.4676
     0.4791   0.5114   0.5400   0.5646   0.6656   0.6706   0.6755   0.8288
     0.8993   0.9041   0.9065   0.9097   0.9380   0.9828   0.9991   1.0254

     occupation numbers 
     1.0000   1.0000   1.0000   1.0000   1.0000   1.0000   1.0000   1.0000
     1.0000   1.0000   1.0000   1.0000   1.0000   1.0000   1.0000   1.0000
     1.0000   1.0000   0.0000   0.0000   0.0000   0.0000   0.0000   0.0000
     0.0000   0.0000   0.0000   0.0000   0.0000   0.0000   0.0000   0.0000
     0.0000   0.0000   0.0000   0.0000   0.0000   0.0000   0.0000   0.0000

     highest occupied, lowest unoccupied level (ev):    -5.8493   -5.4779

     The total energy is the sum of the following terms:

     one-electron contribution =    -689.43152713 Ry
     hartree contribution      =     348.98322817 Ry
     xc contribution           =     -30.79368491 Ry
     ewald contribution        =     268.46058250 Ry

!    total energy              =    -102.78140138 Ry
     Harris-Foulkes estimate   =    -102.78140138 Ry
     estimated scf accuracy    <          2.2E-13 Ry

     The total energy is the sum of the following terms:

     one-electron contribution =    -689.43152713 Ry
     hartree contribution      =     348.98322817 Ry
     xc contribution           =     -30.79368491 Ry
     ewald contribution        =     268.46058250 Ry

     total magnetization       =     1.00 Bohr mag/cell
     absolute magnetization    =     1.21 Bohr mag/cell

     convergence has been achieved in   9 iterations
 
     Using Hirshfeld
        Amplitude [Ry a.u.] :  1.1733E-01
        Acceptor Fragment start :          13
        Acceptor Fragment end   :          13
        Donor Fragment start :           1
        Donor Fragment end   :          12
 
 
     Using Hirshfeld
        Amplitude [Ry a.u.] :  1.1733E-01
        Acceptor Fragment start :          13
        Acceptor Fragment end   :          13
        Donor Fragment start :           1
        Donor Fragment end   :          12
 
     E field correction              : -0.2581300213893690E+01 Ry    
 
     Donor charge                    :      0.6583673014495162 e     
     Acceptor charge                 :     -0.3416320029293933 e     
     Difference of charges           :      0.9999993043789139 e     

     Writing output data file left.save
 
     init_run     :     38.19s CPU     38.19s WALL (       1 calls)
     electrons    :    408.15s CPU    408.15s WALL (       3 calls)
     update_pot   :      1.55s CPU      1.55s WALL (       2 calls)

     Called by init_run:
     wfcinit      :      6.02s CPU      6.02s WALL (       1 calls)
     potinit      :      1.89s CPU      1.89s WALL (       1 calls)

     Called by electrons:
     c_bands      :    311.02s CPU    311.02s WALL (      41 calls)
     sum_band     :     15.08s CPU     15.08s WALL (      41 calls)
     v_of_rho     :     33.11s CPU     33.11s WALL (      44 calls)
     v_h          :      0.58s CPU      0.58s WALL (      44 calls)
     v_xc         :     32.53s CPU     32.53s WALL (      44 calls)
     mix_rho      :      1.61s CPU      1.61s WALL (      41 calls)

     Called by c_bands:
     init_us_2    :      0.76s CPU      0.76s WALL (     166 calls)
     rcgdiagg     :    273.96s CPU    273.96s WALL (      88 calls)
     wfcrot       :     38.08s CPU     38.08s WALL (      84 calls)

     Called by sum_band:

     Called by *cgdiagg:
     h_psi        :    268.17s CPU    268.17s WALL (   17183 calls)
     rdiaghg      :      6.05s CPU      6.05s WALL (      84 calls)
     rdiaghg:chol :      0.46s CPU      0.46s WALL (      84 calls)
     rdiaghg:inve :      0.09s CPU      0.09s WALL (      84 calls)
     rdiaghg:para :      0.45s CPU      0.45s WALL (     168 calls)

     Called by h_psi:
     h_psi:vloc   :    231.27s CPU    231.27s WALL (   17183 calls)
     h_psi:vnl    :     36.52s CPU     36.51s WALL (   17183 calls)
     add_vuspsi   :     23.52s CPU     23.54s WALL (   17183 calls)

     General routines
     calbec       :     17.94s CPU     17.98s WALL (   34282 calls)
     fft          :     27.29s CPU     27.29s WALL (    2786 calls)
     fftw         :    216.39s CPU    216.41s WALL (   39534 calls)
 
     Parallel routines
     fft_scatter  :     95.05s CPU     95.07s WALL (   42320 calls)
 
     PWSCF        :  8m52.14s CPU     8m52.14s WALL

 
   This run was terminated on:  19:53:24   8Jan2016            

=------------------------------------------------------------------------------=
   JOB DONE.
=------------------------------------------------------------------------------=
2016-01-08 19:53:41.536 (INFO ) [0xfff7f13c410] CET-02000-13331-128:1513579:ibm.runjob.client.Job: exited with status 0
2016-01-08 19:53:41.537 (INFO ) [0xfff7f13c410] tatu.runjob.client: task exited with status 0
2016-01-08 19:53:41.537 (INFO ) [0xfff8e1a34e0] 3110:tatu.runjob.monitor: monitor terminating
2016-01-08 19:53:41.541 (INFO ) [0xfff7f13c410] tatu.runjob.client: monitor completed
