
     Program PWSCF v.5.1.1 starts on 10Jun2015 at 12: 5:49 

     This program is part of the open-source Quantum ESPRESSO suite
     for quantum simulation of materials; please cite
         "P. Giannozzi et al., J. Phys.:Condens. Matter 21 395502 (2009);
          URL http://www.quantum-espresso.org", 
     in publications or presentations arising from this work. More details at
     http://www.quantum-espresso.org/quote

     Parallel version (MPI & OpenMP), running on       8 processor cores
     Number of MPI processes:                 1
     Threads/MPI process:                     8
     Waiting for input...
     Reading input from standard input
Warning: card &IONS ignored
Warning: card / ignored

     Current dimensions of program PWSCF are:
     Max number of different atomic species (ntypx) = 10
     Max number of k-points (npk) =  40000
     Max angular momentum in pseudopotentials (lmaxx) =  3
     Presently no symmetry can be used with electric field

               file H.pbe-rrkjus.UPF: wavefunction(s)  1S renormalized

     gamma-point specific algorithms are used

     Subspace diagonalization in iterative solution of the eigenvalue problem:
     a serial algorithm will be used

 
     G-vector sticks info
     --------------------
     sticks:   dense  smooth     PW     G-vecs:    dense   smooth      PW
     Sum         997     997    241                23847    23847    2945
     Tot         499     499    121
 


     bravais-lattice index     =            1
     lattice parameter (alat)  =      13.2281  a.u.
     unit-cell volume          =    2314.6788 (a.u.)^3
     number of atoms/cell      =            5
     number of atomic types    =            2
     number of electrons       =         8.00
     number of Kohn-Sham states=            4
     kinetic-energy cutoff     =      18.0000  Ry
     charge density cutoff     =      72.0000  Ry
     convergence threshold     =      1.0E-06
     mixing beta               =       0.3000
     number of iterations used =            8  plain     mixing
     Exchange-correlation      =  SLA  PW   PBE  PBE ( 1  4  3  4 0 0)

     celldm(1)=  13.228083  celldm(2)=   0.000000  celldm(3)=   0.000000
     celldm(4)=   0.000000  celldm(5)=   0.000000  celldm(6)=   0.000000

     crystal axes: (cart. coord. in units of alat)
               a(1) = (   1.000000   0.000000   0.000000 )  
               a(2) = (   0.000000   1.000000   0.000000 )  
               a(3) = (   0.000000   0.000000   1.000000 )  

     reciprocal axes: (cart. coord. in units 2 pi/alat)
               b(1) = (  1.000000  0.000000  0.000000 )  
               b(2) = (  0.000000  1.000000  0.000000 )  
               b(3) = (  0.000000  0.000000  1.000000 )  


     PseudoPot. # 1 for Si read from file:
     /home/matt/espresso/pseudo/Si.pbe-n-van.UPF
     MD5 check sum: 8a97496598b7338af554a5de8957bfee
     Pseudo is Ultrasoft + core correction, Zval =  4.0
     Generated by new atomic code, or converted to UPF format
     Using radial grid of  899 points,  6 beta functions with: 
                l(1) =   0
                l(2) =   0
                l(3) =   1
                l(4) =   1
                l(5) =   2
                l(6) =   2
     Q(r) pseudized with  8 coefficients,  rinner =    0.900   0.900   0.900
                                                       0.900   0.900

     PseudoPot. # 2 for H  read from file:
     /home/matt/espresso/pseudo/H.pbe-rrkjus.UPF
     MD5 check sum: 7cc9d459525c9a0585f487a71c3c9563
     Pseudo is Ultrasoft, Zval =  1.0
     Generated by new atomic code, or converted to UPF format
     Using radial grid of 1061 points,  2 beta functions with: 
                l(1) =   0
                l(2) =   0
     Q(r) pseudized with 0 coefficients 


     atomic species   valence    mass     pseudopotential
        Si             4.00    28.08550     Si( 1.00)
        H              1.00     1.00794     H ( 1.00)

     No symmetry found



   Cartesian axes

     site n.     atom                  positions (alat units)
         1           Si  tau(   1) = (  -0.0277829   0.3482714   0.0000000  )
         2           H   tau(   2) = (   0.1822929   0.3482714   0.0000000  )
         3           H   tau(   3) = (  -0.0978086   0.4498400   0.1700357  )
         4           H   tau(   4) = (  -0.0978086   0.1502329   0.0029429  )
         5           H   tau(   5) = (  -0.0978086   0.4447414  -0.1729786  )

     number of k points=     1
                       cart. coord. in units 2pi/alat
        k(    1) = (   0.0000000   0.0000000   0.0000000), wk =   2.0000000

     Dense  grid:    11924 G-vectors     FFT dimensions: (  36,  36,  36)

     Largest allocated arrays     est. size (Mb)     dimensions
        Kohn-Sham Wavefunctions         0.09 Mb     (    1473,    4)
        NL pseudopotentials             0.58 Mb     (    1473,   26)
        Each V/rho on FFT grid          0.71 Mb     (   46656)
        Each G-vector array             0.09 Mb     (   11924)
        G-vector shells                 0.00 Mb     (     268)
     Largest temporary arrays     est. size (Mb)     dimensions
        Auxiliary wavefunctions         0.18 Mb     (    1473,   16)
        Each subspace H/S matrix        0.00 Mb     (      16,   16)
        Each <psi_i|beta_j> matrix      0.00 Mb     (      26,    4)
        Arrays for rho mixing           5.70 Mb     (   46656,    8)
 
     Using a distance-based cell
     Adding the potential well
        Amplitude [Ry a.u.] : -1.0000E+00
        Atom selected :           1
        Well size     :  2.6456E+00
 

     Check: negative/imaginary core charge=   -0.000002    0.000000

     Initial potential from superposition of free atoms

     starting charge    7.61451, renormalised to    8.00000

     negative rho (up, down):  1.309E-06 0.000E+00
     Starting wfc are    8 randomized atomic wfcs

     total cpu time spent up to now is        0.6 secs

     per-process dynamical memory:    19.5 Mb

     Self-consistent Calculation

     iteration #  1     ecut=    18.00 Ry     beta=0.30
     Davidson diagonalization with overlap
     ethr =  1.00E-02,  avg # of iterations =  3.0

     negative rho (up, down):  1.447E-04 0.000E+00

     total cpu time spent up to now is        0.7 secs

     The total energy is the sum of the following terms:

     one-electron contribution =     -25.51052534 Ry
     hartree contribution      =       7.90720510 Ry
     xc contribution           =      -6.42726872 Ry
     ewald contribution        =       0.88693575 Ry

     total energy              =     -19.32556995 Ry
     Harris-Foulkes estimate   =     -20.19047967 Ry
     estimated scf accuracy    <       2.23822448 Ry

     iteration #  2     ecut=    18.00 Ry     beta=0.30
     Davidson diagonalization with overlap
     ethr =  1.00E-02,  avg # of iterations =  1.0

     negative rho (up, down):  1.666E-02 0.000E+00

     total cpu time spent up to now is        0.8 secs

     The total energy is the sum of the following terms:

     one-electron contribution =     -25.06814470 Ry
     hartree contribution      =      11.49162294 Ry
     xc contribution           =      -7.41532099 Ry
     ewald contribution        =       0.88693575 Ry

     total energy              =     -18.82280838 Ry
     Harris-Foulkes estimate   =     -19.38820458 Ry
     estimated scf accuracy    <       0.79052247 Ry

     iteration #  3     ecut=    18.00 Ry     beta=0.30
     Davidson diagonalization with overlap
     ethr =  9.88E-03,  avg # of iterations =  2.0

     negative rho (up, down):  3.377E-02 0.000E+00

     total cpu time spent up to now is        0.9 secs

     The total energy is the sum of the following terms:

     one-electron contribution =     -24.09827420 Ry
     hartree contribution      =      11.41963143 Ry
     xc contribution           =      -7.45570360 Ry
     ewald contribution        =       0.88693575 Ry

     total energy              =     -18.91415924 Ry
     Harris-Foulkes estimate   =     -18.94954156 Ry
     estimated scf accuracy    <       0.07527178 Ry

     iteration #  4     ecut=    18.00 Ry     beta=0.30
     Davidson diagonalization with overlap
     ethr =  9.41E-04,  avg # of iterations =  2.0

     negative rho (up, down):  6.956E-02 0.000E+00

     total cpu time spent up to now is        1.1 secs

     The total energy is the sum of the following terms:

     one-electron contribution =     -24.44361569 Ry
     hartree contribution      =      12.01153547 Ry
     xc contribution           =      -7.61223177 Ry
     ewald contribution        =       0.88693575 Ry

     total energy              =     -18.91732626 Ry
     Harris-Foulkes estimate   =     -18.93231157 Ry
     estimated scf accuracy    <       0.02443141 Ry

     iteration #  5     ecut=    18.00 Ry     beta=0.30
     Davidson diagonalization with overlap
     ethr =  3.05E-04,  avg # of iterations =  2.0

     negative rho (up, down):  7.379E-02 0.000E+00

     total cpu time spent up to now is        1.2 secs

     The total energy is the sum of the following terms:

     one-electron contribution =     -24.25751507 Ry
     hartree contribution      =      12.09164340 Ry
     xc contribution           =      -7.64676723 Ry
     ewald contribution        =       0.88693575 Ry

     total energy              =     -18.92209668 Ry
     Harris-Foulkes estimate   =     -18.92112020 Ry
     estimated scf accuracy    <       0.00157518 Ry

     iteration #  6     ecut=    18.00 Ry     beta=0.30
     Davidson diagonalization with overlap
     ethr =  1.97E-05,  avg # of iterations =  1.0

     negative rho (up, down):  7.739E-02 0.000E+00

     total cpu time spent up to now is        1.3 secs

     The total energy is the sum of the following terms:

     one-electron contribution =     -24.25309454 Ry
     hartree contribution      =      12.01821105 Ry
     xc contribution           =      -7.59141807 Ry
     ewald contribution        =       0.88693575 Ry

     total energy              =     -18.92021454 Ry
     Harris-Foulkes estimate   =     -18.92214551 Ry
     estimated scf accuracy    <       0.00407054 Ry

     iteration #  7     ecut=    18.00 Ry     beta=0.30
     Davidson diagonalization with overlap
     ethr =  1.97E-05,  avg # of iterations =  2.0

     negative rho (up, down):  7.730E-02 0.000E+00

     total cpu time spent up to now is        1.5 secs

     The total energy is the sum of the following terms:

     one-electron contribution =     -24.22289666 Ry
     hartree contribution      =      12.01688727 Ry
     xc contribution           =      -7.59125766 Ry
     ewald contribution        =       0.88693575 Ry

     total energy              =     -18.92069402 Ry
     Harris-Foulkes estimate   =     -18.92069817 Ry
     estimated scf accuracy    <       0.00007091 Ry

     iteration #  8     ecut=    18.00 Ry     beta=0.30
     Davidson diagonalization with overlap
     ethr =  8.86E-07,  avg # of iterations =  2.0

     negative rho (up, down):  7.740E-02 0.000E+00

     total cpu time spent up to now is        1.6 secs

     The total energy is the sum of the following terms:

     one-electron contribution =     -24.22512924 Ry
     hartree contribution      =      12.01987394 Ry
     xc contribution           =      -7.59309358 Ry
     ewald contribution        =       0.88693575 Ry

     total energy              =     -18.92069061 Ry
     Harris-Foulkes estimate   =     -18.92070110 Ry
     estimated scf accuracy    <       0.00005796 Ry

     iteration #  9     ecut=    18.00 Ry     beta=0.30
     Davidson diagonalization with overlap
     ethr =  7.24E-07,  avg # of iterations =  1.0

     negative rho (up, down):  7.729E-02 0.000E+00

     total cpu time spent up to now is        1.7 secs

     The total energy is the sum of the following terms:

     one-electron contribution =     -24.22547791 Ry
     hartree contribution      =      12.02252431 Ry
     xc contribution           =      -7.59398554 Ry
     ewald contribution        =       0.88693575 Ry

     total energy              =     -18.92069211 Ry
     Harris-Foulkes estimate   =     -18.92069100 Ry
     estimated scf accuracy    <       0.00003468 Ry

     iteration # 10     ecut=    18.00 Ry     beta=0.30
     Davidson diagonalization with overlap
     ethr =  4.33E-07,  avg # of iterations =  1.0

     negative rho (up, down):  7.675E-02 0.000E+00

     total cpu time spent up to now is        1.8 secs

     The total energy is the sum of the following terms:

     one-electron contribution =     -24.22492755 Ry
     hartree contribution      =      12.02372060 Ry
     xc contribution           =      -7.59552333 Ry
     ewald contribution        =       0.88693575 Ry

     total energy              =     -18.92068410 Ry
     Harris-Foulkes estimate   =     -18.92069226 Ry
     estimated scf accuracy    <       0.00003126 Ry

     iteration # 11     ecut=    18.00 Ry     beta=0.30
     Davidson diagonalization with overlap
     ethr =  3.91E-07,  avg # of iterations =  1.0

     negative rho (up, down):  7.670E-02 0.000E+00

     total cpu time spent up to now is        1.9 secs

     The total energy is the sum of the following terms:

     one-electron contribution =     -24.22635504 Ry
     hartree contribution      =      12.02413847 Ry
     xc contribution           =      -7.59563785 Ry
     ewald contribution        =       0.88693575 Ry

     total energy              =     -18.92068609 Ry
     Harris-Foulkes estimate   =     -18.92068582 Ry
     estimated scf accuracy    <       0.00001296 Ry

     iteration # 12     ecut=    18.00 Ry     beta=0.30
     Davidson diagonalization with overlap
     ethr =  1.62E-07,  avg # of iterations =  1.0

     negative rho (up, down):  7.669E-02 0.000E+00

     total cpu time spent up to now is        2.1 secs

     The total energy is the sum of the following terms:

     one-electron contribution =     -24.22662679 Ry
     hartree contribution      =      12.02407442 Ry
     xc contribution           =      -7.59572121 Ry
     ewald contribution        =       0.88693575 Ry

     total energy              =     -18.92068604 Ry
     Harris-Foulkes estimate   =     -18.92068626 Ry
     estimated scf accuracy    <       0.00001427 Ry

     iteration # 13     ecut=    18.00 Ry     beta=0.30
     Davidson diagonalization with overlap
     ethr =  1.62E-07,  avg # of iterations =  1.0

     negative rho (up, down):  7.670E-02 0.000E+00

     total cpu time spent up to now is        2.2 secs

     The total energy is the sum of the following terms:

     one-electron contribution =     -24.22686069 Ry
     hartree contribution      =      12.02245816 Ry
     xc contribution           =      -7.59520692 Ry
     ewald contribution        =       0.88693575 Ry

     total energy              =     -18.92068533 Ry
     Harris-Foulkes estimate   =     -18.92068611 Ry
     estimated scf accuracy    <       0.00001320 Ry

     iteration # 14     ecut=    18.00 Ry     beta=0.30
     Davidson diagonalization with overlap
     ethr =  1.62E-07,  avg # of iterations =  1.0

     negative rho (up, down):  7.681E-02 0.000E+00

     total cpu time spent up to now is        2.3 secs

     The total energy is the sum of the following terms:

     one-electron contribution =     -24.22735006 Ry
     hartree contribution      =      12.01545226 Ry
     xc contribution           =      -7.59401211 Ry
     ewald contribution        =       0.88693575 Ry

     total energy              =     -18.92068242 Ry
     Harris-Foulkes estimate   =     -18.92068538 Ry
     estimated scf accuracy    <       0.00000999 Ry

     iteration # 15     ecut=    18.00 Ry     beta=0.30
     Davidson diagonalization with overlap
     ethr =  1.25E-07,  avg # of iterations =  2.0

     negative rho (up, down):  7.684E-02 0.000E+00

     total cpu time spent up to now is        2.4 secs

     The total energy is the sum of the following terms:

     one-electron contribution =     -24.23201643 Ry
     hartree contribution      =      12.01556178 Ry
     xc contribution           =      -7.59398630 Ry
     ewald contribution        =       0.88693575 Ry

     total energy              =     -18.92068468 Ry
     Harris-Foulkes estimate   =     -18.92068494 Ry
     estimated scf accuracy    <       0.00000504 Ry

     iteration # 16     ecut=    18.00 Ry     beta=0.30
     Davidson diagonalization with overlap
     ethr =  6.29E-08,  avg # of iterations =  1.0

     negative rho (up, down):  7.701E-02 0.000E+00

     total cpu time spent up to now is        2.6 secs

     The total energy is the sum of the following terms:

     one-electron contribution =     -24.23187146 Ry
     hartree contribution      =      12.01311565 Ry
     xc contribution           =      -7.59319013 Ry
     ewald contribution        =       0.88693575 Ry

     total energy              =     -18.92068507 Ry
     Harris-Foulkes estimate   =     -18.92068470 Ry
     estimated scf accuracy    <       0.00000467 Ry

     iteration # 17     ecut=    18.00 Ry     beta=0.30
     Davidson diagonalization with overlap
     ethr =  5.84E-08,  avg # of iterations =  1.0

     negative rho (up, down):  7.706E-02 0.000E+00

     total cpu time spent up to now is        2.7 secs

     The total energy is the sum of the following terms:

     one-electron contribution =     -24.23259932 Ry
     hartree contribution      =      12.01535761 Ry
     xc contribution           =      -7.59333503 Ry
     ewald contribution        =       0.88693575 Ry

     total energy              =     -18.92068371 Ry
     Harris-Foulkes estimate   =     -18.92068515 Ry
     estimated scf accuracy    <       0.00000390 Ry

     iteration # 18     ecut=    18.00 Ry     beta=0.30
     Davidson diagonalization with overlap
     ethr =  4.87E-08,  avg # of iterations =  1.0

     negative rho (up, down):  7.708E-02 0.000E+00

     total cpu time spent up to now is        2.8 secs

     End of self-consistent calculation

          k = 0.0000 0.0000 0.0000 (  1473 PWs)   bands (ev):

   -17.8167 -11.6361 -11.5463 -11.5419

     highest occupied level (ev):   -11.5419

     The total energy is the sum of the following terms:

     one-electron contribution =     -24.23107446 Ry
     hartree contribution      =      12.01721188 Ry
     xc contribution           =      -7.59375703 Ry
     ewald contribution        =       0.88693575 Ry

!    total energy              =     -18.92068385 Ry
     Harris-Foulkes estimate   =     -18.92068404 Ry
     estimated scf accuracy    <       0.00000020 Ry

     The total energy is the sum of the following terms:

     one-electron contribution =     -24.23107446 Ry
     hartree contribution      =      12.01721188 Ry
     xc contribution           =      -7.59375703 Ry
     ewald contribution        =       0.88693575 Ry
     electric field correction =       0.00000000 Ry

     convergence has been achieved in  18 iterations
 
     Using a distance-based cell
     Adding the potential well
        Amplitude [Ry a.u.] : -1.0000E+00
        Atom selected :           1
        Well size     :  2.6456E+00
 
 
     Using a distance-based cell
     Adding the potential well
        Amplitude [Ry a.u.] : -1.0000E+00
        Atom selected :           1
        Well size     :  2.6456E+00
 
     E field correction :    5.25750531052155       Ry
     #e's   in well     :    5.25750531052155       electrons
     Numerical error    :    0.742494689478449      electrons
 
     -----------------------------------------------
 
                      SCF converged but...
 
     electron localization condition NOT satisfied
     restarting scf with different applied potential
 
     New field Amp      :   -1.74249468947845       Ry
     charge density from previous step

     Check: negative/imaginary core charge=   -0.000002    0.000000

     negative rho (up, down):  7.708E-02 0.000E+00
 
     Using a distance-based cell
     Adding the potential well
        Amplitude [Ry a.u.] : -1.7425E+00
        Atom selected :           1
        Well size     :  2.6456E+00
 

     total cpu time spent up to now is        3.0 secs

     per-process dynamical memory:    19.9 Mb

     Self-consistent Calculation

     iteration #  1     ecut=    18.00 Ry     beta=0.30
     Davidson diagonalization with overlap
     ethr =  4.87E-08,  avg # of iterations =  9.0

     negative rho (up, down):  9.145E-02 0.000E+00

     total cpu time spent up to now is        3.1 secs

     The total energy is the sum of the following terms:

     one-electron contribution =     -30.16376489 Ry
     hartree contribution      =      12.65585826 Ry
     xc contribution           =      -7.72393863 Ry
     ewald contribution        =       0.88693575 Ry

     total energy              =     -23.11233001 Ry
     Harris-Foulkes estimate   =     -23.22488085 Ry
     estimated scf accuracy    <       0.31210575 Ry

     iteration #  2     ecut=    18.00 Ry     beta=0.30
     Davidson diagonalization with overlap
     ethr =  3.90E-03,  avg # of iterations =  1.0

     negative rho (up, down):  1.097E-01 0.000E+00

     total cpu time spent up to now is        3.2 secs

     The total energy is the sum of the following terms:

     one-electron contribution =     -29.89817732 Ry
     hartree contribution      =      13.45958256 Ry
     xc contribution           =      -7.89279641 Ry
     ewald contribution        =       0.88693575 Ry

     total energy              =     -23.07043763 Ry
     Harris-Foulkes estimate   =     -23.12365441 Ry
     estimated scf accuracy    <       0.08876732 Ry

     iteration #  3     ecut=    18.00 Ry     beta=0.30
     Davidson diagonalization with overlap
     ethr =  1.11E-03,  avg # of iterations =  2.0

     negative rho (up, down):  1.091E-01 0.000E+00

     total cpu time spent up to now is        3.5 secs

     The total energy is the sum of the following terms:

     one-electron contribution =     -29.56771647 Ry
     hartree contribution      =      13.45324958 Ry
     xc contribution           =      -7.89415613 Ry
     ewald contribution        =       0.88693575 Ry

     total energy              =     -23.09063879 Ry
     Harris-Foulkes estimate   =     -23.09100874 Ry
     estimated scf accuracy    <       0.00343343 Ry

     iteration #  4     ecut=    18.00 Ry     beta=0.30
     Davidson diagonalization with overlap
     ethr =  4.29E-05,  avg # of iterations =  1.0

     negative rho (up, down):  1.072E-01 0.000E+00

     total cpu time spent up to now is        3.6 secs

     The total energy is the sum of the following terms:

     one-electron contribution =     -29.56836361 Ry
     hartree contribution      =      13.47308264 Ry
     xc contribution           =      -7.90942834 Ry
     ewald contribution        =       0.88693575 Ry

     total energy              =     -23.08997338 Ry
     Harris-Foulkes estimate   =     -23.09086771 Ry
     estimated scf accuracy    <       0.00247910 Ry

     iteration #  5     ecut=    18.00 Ry     beta=0.30
     Davidson diagonalization with overlap
     ethr =  3.10E-05,  avg # of iterations =  1.0

     negative rho (up, down):  1.070E-01 0.000E+00

     total cpu time spent up to now is        3.7 secs

     The total energy is the sum of the following terms:

     one-electron contribution =     -29.59643306 Ry
     hartree contribution      =      13.53960803 Ry
     xc contribution           =      -7.93370935 Ry
     ewald contribution        =       0.88693575 Ry

     total energy              =     -23.08995449 Ry
     Harris-Foulkes estimate   =     -23.09012381 Ry
     estimated scf accuracy    <       0.00042188 Ry

     iteration #  6     ecut=    18.00 Ry     beta=0.30
     Davidson diagonalization with overlap
     ethr =  5.27E-06,  avg # of iterations =  2.0

     negative rho (up, down):  1.070E-01 0.000E+00

     total cpu time spent up to now is        3.8 secs

     The total energy is the sum of the following terms:

     one-electron contribution =     -29.59431013 Ry
     hartree contribution      =      13.53870039 Ry
     xc contribution           =      -7.93350691 Ry
     ewald contribution        =       0.88693575 Ry

     total energy              =     -23.09003100 Ry
     Harris-Foulkes estimate   =     -23.09003028 Ry
     estimated scf accuracy    <       0.00005780 Ry

     iteration #  7     ecut=    18.00 Ry     beta=0.30
     Davidson diagonalization with overlap
     ethr =  7.22E-07,  avg # of iterations =  1.0

     negative rho (up, down):  1.074E-01 0.000E+00

     total cpu time spent up to now is        4.0 secs

     The total energy is the sum of the following terms:

     one-electron contribution =     -29.59624593 Ry
     hartree contribution      =      13.54874995 Ry
     xc contribution           =      -7.93584629 Ry
     ewald contribution        =       0.88693575 Ry

     total energy              =     -23.09002215 Ry
     Harris-Foulkes estimate   =     -23.09003387 Ry
     estimated scf accuracy    <       0.00004127 Ry

     iteration #  8     ecut=    18.00 Ry     beta=0.30
     Davidson diagonalization with overlap
     ethr =  5.16E-07,  avg # of iterations =  1.0

     negative rho (up, down):  1.074E-01 0.000E+00

     total cpu time spent up to now is        4.1 secs

     The total energy is the sum of the following terms:

     one-electron contribution =     -29.59180219 Ry
     hartree contribution      =      13.54815561 Ry
     xc contribution           =      -7.93571684 Ry
     ewald contribution        =       0.88693575 Ry

     total energy              =     -23.09002558 Ry
     Harris-Foulkes estimate   =     -23.09002538 Ry
     estimated scf accuracy    <       0.00000279 Ry

     iteration #  9     ecut=    18.00 Ry     beta=0.30
     Davidson diagonalization with overlap
     ethr =  3.49E-08,  avg # of iterations =  3.0

     negative rho (up, down):  1.074E-01 0.000E+00

     total cpu time spent up to now is        4.2 secs

     The total energy is the sum of the following terms:

     one-electron contribution =     -29.59211321 Ry
     hartree contribution      =      13.54861522 Ry
     xc contribution           =      -7.93578182 Ry
     ewald contribution        =       0.88693575 Ry

     total energy              =     -23.09002576 Ry
     Harris-Foulkes estimate   =     -23.09002600 Ry
     estimated scf accuracy    <       0.00000263 Ry

     iteration # 10     ecut=    18.00 Ry     beta=0.30
     Davidson diagonalization with overlap
     ethr =  3.29E-08,  avg # of iterations =  1.0

     negative rho (up, down):  1.075E-01 0.000E+00

     total cpu time spent up to now is        4.3 secs

     The total energy is the sum of the following terms:

     one-electron contribution =     -29.59167092 Ry
     hartree contribution      =      13.54948615 Ry
     xc contribution           =      -7.93600074 Ry
     ewald contribution        =       0.88693575 Ry

     total energy              =     -23.09002578 Ry
     Harris-Foulkes estimate   =     -23.09002583 Ry
     estimated scf accuracy    <       0.00000151 Ry

     iteration # 11     ecut=    18.00 Ry     beta=0.30
     Davidson diagonalization with overlap
     ethr =  1.89E-08,  avg # of iterations =  1.0

     negative rho (up, down):  1.074E-01 0.000E+00

     total cpu time spent up to now is        4.5 secs

     The total energy is the sum of the following terms:

     one-electron contribution =     -29.59133778 Ry
     hartree contribution      =      13.55126099 Ry
     xc contribution           =      -7.93676602 Ry
     ewald contribution        =       0.88693575 Ry

     total energy              =     -23.09002681 Ry
     Harris-Foulkes estimate   =     -23.09002583 Ry
     estimated scf accuracy    <       0.00000102 Ry

     iteration # 12     ecut=    18.00 Ry     beta=0.30
     Davidson diagonalization with overlap
     ethr =  1.28E-08,  avg # of iterations =  2.0

     negative rho (up, down):  1.074E-01 0.000E+00

     total cpu time spent up to now is        4.6 secs

     End of self-consistent calculation

          k = 0.0000 0.0000 0.0000 (  1473 PWs)   bands (ev):

   -22.9798 -16.1234 -15.9691 -15.9592

     highest occupied level (ev):   -15.9592

     The total energy is the sum of the following terms:

     one-electron contribution =     -29.59109003 Ry
     hartree contribution      =      13.55085780 Ry
     xc contribution           =      -7.93672966 Ry
     ewald contribution        =       0.88693575 Ry

!    total energy              =     -23.09002613 Ry
     Harris-Foulkes estimate   =     -23.09002708 Ry
     estimated scf accuracy    <       0.00000089 Ry

     The total energy is the sum of the following terms:

     one-electron contribution =     -29.59109003 Ry
     hartree contribution      =      13.55085780 Ry
     xc contribution           =      -7.93672966 Ry
     ewald contribution        =       0.88693575 Ry
     electric field correction =       0.00000000 Ry

     convergence has been achieved in  12 iterations
 
     Using a distance-based cell
     Adding the potential well
        Amplitude [Ry a.u.] : -1.7425E+00
        Atom selected :           1
        Well size     :  2.6456E+00
 
 
     Using a distance-based cell
     Adding the potential well
        Amplitude [Ry a.u.] : -1.7425E+00
        Atom selected :           1
        Well size     :  2.6456E+00
 
     E field correction :    10.3566162969575       Ry
     #e's   in well     :    5.94355687824645       electrons
     Numerical error    :    5.644312175355015E-002 electrons
 
     -----------------------------------------------
 
                      SCF converged but...
 
     electron localization condition NOT satisfied
     restarting scf with different applied potential
 
     New field Amp      :   -1.84084652939160       Ry
     charge density from previous step

     Check: negative/imaginary core charge=   -0.000002    0.000000

     negative rho (up, down):  1.074E-01 0.000E+00
 
     Using a distance-based cell
     Adding the potential well
        Amplitude [Ry a.u.] : -1.8408E+00
        Atom selected :           1
        Well size     :  2.6456E+00
 

     total cpu time spent up to now is        4.7 secs

     per-process dynamical memory:    19.9 Mb

     Self-consistent Calculation

     iteration #  1     ecut=    18.00 Ry     beta=0.30
     Davidson diagonalization with overlap
     ethr =  1.28E-08,  avg # of iterations =  7.0

     negative rho (up, down):  1.095E-01 0.000E+00

     total cpu time spent up to now is        4.9 secs

     The total energy is the sum of the following terms:

     one-electron contribution =     -30.39318959 Ry
     hartree contribution      =      13.63163110 Ry
     xc contribution           =      -7.95365011 Ry
     ewald contribution        =       0.88693575 Ry

     total energy              =     -23.67868837 Ry
     Harris-Foulkes estimate   =     -23.68020550 Ry
     estimated scf accuracy    <       0.00426157 Ry

     iteration #  2     ecut=    18.00 Ry     beta=0.30
     Davidson diagonalization with overlap
     ethr =  5.33E-05,  avg # of iterations =  1.0

     negative rho (up, down):  1.117E-01 0.000E+00

     total cpu time spent up to now is        5.0 secs

     The total energy is the sum of the following terms:

     one-electron contribution =     -30.35755370 Ry
     hartree contribution      =      13.72365900 Ry
     xc contribution           =      -7.97279497 Ry
     ewald contribution        =       0.88693575 Ry

     total energy              =     -23.67812471 Ry
     Harris-Foulkes estimate   =     -23.67884281 Ry
     estimated scf accuracy    <       0.00120438 Ry

     iteration #  3     ecut=    18.00 Ry     beta=0.30
     Davidson diagonalization with overlap
     ethr =  1.51E-05,  avg # of iterations =  2.0

     negative rho (up, down):  1.116E-01 0.000E+00

     total cpu time spent up to now is        5.2 secs

     The total energy is the sum of the following terms:

     one-electron contribution =     -30.31806287 Ry
     hartree contribution      =      13.72297436 Ry
     xc contribution           =      -7.97296419 Ry
     ewald contribution        =       0.88693575 Ry

     total energy              =     -23.67839840 Ry
     Harris-Foulkes estimate   =     -23.67840224 Ry
     estimated scf accuracy    <       0.00003938 Ry

     iteration #  4     ecut=    18.00 Ry     beta=0.30
     Davidson diagonalization with overlap
     ethr =  4.92E-07,  avg # of iterations =  1.0

     negative rho (up, down):  1.114E-01 0.000E+00

     total cpu time spent up to now is        5.3 secs

     The total energy is the sum of the following terms:

     one-electron contribution =     -30.31788559 Ry
     hartree contribution      =      13.72378820 Ry
     xc contribution           =      -7.97415516 Ry
     ewald contribution        =       0.88693575 Ry

     total energy              =     -23.67839407 Ry
     Harris-Foulkes estimate   =     -23.67840135 Ry
     estimated scf accuracy    <       0.00002808 Ry

     iteration #  5     ecut=    18.00 Ry     beta=0.30
     Davidson diagonalization with overlap
     ethr =  3.51E-07,  avg # of iterations =  1.0

     negative rho (up, down):  1.113E-01 0.000E+00

     total cpu time spent up to now is        5.5 secs

     The total energy is the sum of the following terms:

     one-electron contribution =     -30.32063206 Ry
     hartree contribution      =      13.73088022 Ry
     xc contribution           =      -7.97697082 Ry
     ewald contribution        =       0.88693575 Ry

     total energy              =     -23.67839408 Ry
     Harris-Foulkes estimate   =     -23.67839551 Ry
     estimated scf accuracy    <       0.00000720 Ry

     iteration #  6     ecut=    18.00 Ry     beta=0.30
     Davidson diagonalization with overlap
     ethr =  8.99E-08,  avg # of iterations =  2.0

     negative rho (up, down):  1.113E-01 0.000E+00

     total cpu time spent up to now is        5.6 secs

     End of self-consistent calculation

          k = 0.0000 0.0000 0.0000 (  1473 PWs)   bands (ev):

   -23.7545 -16.8185 -16.6601 -16.6461

     highest occupied level (ev):   -16.6461

     The total energy is the sum of the following terms:

     one-electron contribution =     -30.32086369 Ry
     hartree contribution      =      13.73304911 Ry
     xc contribution           =      -7.97751590 Ry
     ewald contribution        =       0.88693575 Ry

!    total energy              =     -23.67839473 Ry
     Harris-Foulkes estimate   =     -23.67839517 Ry
     estimated scf accuracy    <       0.00000063 Ry

     The total energy is the sum of the following terms:

     one-electron contribution =     -30.32086369 Ry
     hartree contribution      =      13.73304911 Ry
     xc contribution           =      -7.97751590 Ry
     ewald contribution        =       0.88693575 Ry
     electric field correction =       0.00000000 Ry

     convergence has been achieved in   6 iterations
 
     Using a distance-based cell
     Adding the potential well
        Amplitude [Ry a.u.] : -1.8408E+00
        Atom selected :           1
        Well size     :  2.6456E+00
 
 
     Using a distance-based cell
     Adding the potential well
        Amplitude [Ry a.u.] : -1.8408E+00
        Atom selected :           1
        Well size     :  2.6456E+00
 
     E field correction :    11.0837602565220       Ry
     #e's   in well     :    6.02101265887995       electrons
     Numerical error    :   -2.101265887995485E-002 electrons
 
     -----------------------------------------------
 
                      SCF converged but...
 
     electron localization condition NOT satisfied
     restarting scf with different applied potential
 
     New field Amp      :   -1.80216544921914       Ry
     charge density from previous step

     Check: negative/imaginary core charge=   -0.000002    0.000000

     negative rho (up, down):  1.113E-01 0.000E+00
 
     Using a distance-based cell
     Adding the potential well
        Amplitude [Ry a.u.] : -1.8022E+00
        Atom selected :           1
        Well size     :  2.6456E+00
 

     total cpu time spent up to now is        5.7 secs

     per-process dynamical memory:    22.8 Mb

     Self-consistent Calculation

     iteration #  1     ecut=    18.00 Ry     beta=0.30
     Davidson diagonalization with overlap
     ethr =  8.99E-08,  avg # of iterations =  5.0

     negative rho (up, down):  1.105E-01 0.000E+00

     total cpu time spent up to now is        5.9 secs

     The total energy is the sum of the following terms:

     one-electron contribution =     -30.00383688 Ry
     hartree contribution      =      13.70079123 Ry
     xc contribution           =      -7.97071895 Ry
     ewald contribution        =       0.88693575 Ry

     total energy              =     -23.44613091 Ry
     Harris-Foulkes estimate   =     -23.44636067 Ry
     estimated scf accuracy    <       0.00066282 Ry

     iteration #  2     ecut=    18.00 Ry     beta=0.30
     Davidson diagonalization with overlap
     ethr =  8.29E-06,  avg # of iterations =  1.0

     negative rho (up, down):  1.096E-01 0.000E+00

     total cpu time spent up to now is        6.0 secs

     The total energy is the sum of the following terms:

     one-electron contribution =     -30.01820165 Ry
     hartree contribution      =      13.66454566 Ry
     xc contribution           =      -7.96324766 Ry
     ewald contribution        =       0.88693575 Ry

     total energy              =     -23.44604783 Ry
     Harris-Foulkes estimate   =     -23.44615444 Ry
     estimated scf accuracy    <       0.00018914 Ry

     iteration #  3     ecut=    18.00 Ry     beta=0.30
     Davidson diagonalization with overlap
     ethr =  2.36E-06,  avg # of iterations =  2.0

     negative rho (up, down):  1.097E-01 0.000E+00

     total cpu time spent up to now is        6.2 secs

     The total energy is the sum of the following terms:

     one-electron contribution =     -30.03441969 Ry
     hartree contribution      =      13.66505365 Ry
     xc contribution           =      -7.96321006 Ry
     ewald contribution        =       0.88693575 Ry

     total energy              =     -23.44609135 Ry
     Harris-Foulkes estimate   =     -23.44609255 Ry
     estimated scf accuracy    <       0.00000623 Ry

     iteration #  4     ecut=    18.00 Ry     beta=0.30
     Davidson diagonalization with overlap
     ethr =  7.79E-08,  avg # of iterations =  2.0

     negative rho (up, down):  1.098E-01 0.000E+00

     total cpu time spent up to now is        6.3 secs

     The total energy is the sum of the following terms:

     one-electron contribution =     -30.03421775 Ry
     hartree contribution      =      13.66441451 Ry
     xc contribution           =      -7.96267806 Ry
     ewald contribution        =       0.88693575 Ry

     total energy              =     -23.44608992 Ry
     Harris-Foulkes estimate   =     -23.44609186 Ry
     estimated scf accuracy    <       0.00000411 Ry

     iteration #  5     ecut=    18.00 Ry     beta=0.30
     Davidson diagonalization with overlap
     ethr =  5.13E-08,  avg # of iterations =  1.0

     negative rho (up, down):  1.098E-01 0.000E+00

     total cpu time spent up to now is        6.5 secs

     The total energy is the sum of the following terms:

     one-electron contribution =     -30.03344481 Ry
     hartree contribution      =      13.66222404 Ry
     xc contribution           =      -7.96168491 Ry
     ewald contribution        =       0.88693575 Ry

     total energy              =     -23.44608896 Ry
     Harris-Foulkes estimate   =     -23.44609008 Ry
     estimated scf accuracy    <       0.00000108 Ry

     iteration #  6     ecut=    18.00 Ry     beta=0.30
     Davidson diagonalization with overlap
     ethr =  1.35E-08,  avg # of iterations =  2.0

     negative rho (up, down):  1.098E-01 0.000E+00

     total cpu time spent up to now is        6.6 secs

     End of self-consistent calculation

          k = 0.0000 0.0000 0.0000 (  1473 PWs)   bands (ev):

   -23.4450 -16.5399 -16.3848 -16.3710

     highest occupied level (ev):   -16.3710

     The total energy is the sum of the following terms:

     one-electron contribution =     -30.03304489 Ry
     hartree contribution      =      13.66160275 Ry
     xc contribution           =      -7.96158281 Ry
     ewald contribution        =       0.88693575 Ry

!    total energy              =     -23.44608919 Ry
     Harris-Foulkes estimate   =     -23.44608915 Ry
     estimated scf accuracy    <       0.00000012 Ry

     The total energy is the sum of the following terms:

     one-electron contribution =     -30.03304489 Ry
     hartree contribution      =      13.66160275 Ry
     xc contribution           =      -7.96158281 Ry
     ewald contribution        =       0.88693575 Ry
     electric field correction =       0.00000000 Ry

     convergence has been achieved in   6 iterations
 
     Using a distance-based cell
     Adding the potential well
        Amplitude [Ry a.u.] : -1.8022E+00
        Atom selected :           1
        Well size     :  2.6456E+00
 
 
     Using a distance-based cell
     Adding the potential well
        Amplitude [Ry a.u.] : -1.8022E+00
        Atom selected :           1
        Well size     :  2.6456E+00
 
     E field correction :    10.7963032659994       Ry
     #e's   in well     :    5.99073923577735       electrons

     Writing output data file si.save
 
     init_run     :      4.11s CPU      0.58s WALL (       1 calls)
     electrons    :     40.36s CPU      5.71s WALL (       4 calls)
     update_pot   :      0.85s CPU      0.12s WALL (       3 calls)

     Called by init_run:
     wfcinit      :      0.18s CPU      0.03s WALL (       1 calls)
     potinit      :      0.28s CPU      0.04s WALL (       1 calls)

     Called by electrons:
     c_bands      :      5.13s CPU      0.69s WALL (      42 calls)
     sum_band     :      9.65s CPU      1.37s WALL (      42 calls)
     v_of_rho     :     10.30s CPU      1.46s WALL (      46 calls)
     newd         :     16.04s CPU      2.30s WALL (      46 calls)
     mix_rho      :      1.11s CPU      0.15s WALL (      42 calls)

     Called by c_bands:
     init_us_2    :      0.57s CPU      0.09s WALL (      85 calls)
     regterg      :      4.22s CPU      0.57s WALL (      42 calls)

     Called by *egterg:
     h_psi        :      3.92s CPU      0.54s WALL (     121 calls)
     s_psi        :      0.03s CPU      0.01s WALL (     121 calls)
     g_psi        :      0.03s CPU      0.00s WALL (      78 calls)
     rdiaghg      :      0.10s CPU      0.01s WALL (     117 calls)

     Called by h_psi:
     add_vuspsi   :      0.05s CPU      0.01s WALL (     121 calls)

     General routines
     calbec       :      0.19s CPU      0.02s WALL (     163 calls)
     fft          :      6.66s CPU      0.96s WALL (     591 calls)
     fftw         :      3.60s CPU      0.49s WALL (     566 calls)
     davcio       :      0.00s CPU      0.00s WALL (       1 calls)
 
     Parallel routines
     fft_scatter  :      1.39s CPU      0.20s WALL (    1157 calls)
 
     PWSCF        :    46.87s CPU         6.66s WALL

 
   This run was terminated on:  12: 5:56  10Jun2015            

=------------------------------------------------------------------------------=
   JOB DONE.
=------------------------------------------------------------------------------=
