
     Program PWSCF v.5.1.1 starts on 11Aug2015 at 13:34:14 

     This program is part of the open-source Quantum ESPRESSO suite
     for quantum simulation of materials; please cite
         "P. Giannozzi et al., J. Phys.:Condens. Matter 21 395502 (2009);
          URL http://www.quantum-espresso.org", 
     in publications or presentations arising from this work. More details at
     http://www.quantum-espresso.org/quote

     Parallel version (MPI & OpenMP), running on     198 processor cores
     Number of MPI processes:               198
     Threads/MPI process:                     1
     R & G space division:  proc/nbgrp/npool/nimage =     198
     Waiting for input...
     Reading input from standard input

     Current dimensions of program PWSCF are:
     Max number of different atomic species (ntypx) = 10
     Max number of k-points (npk) =  40000
     Max angular momentum in pseudopotentials (lmaxx) =  3
               file Zn.pbe-mt_fhi.UPF: wavefunction(s)  4p 4f renormalized

     gamma-point specific algorithms are used
     Message from routine setup:
     the system is metallic, specify occupations

     Subspace diagonalization in iterative solution of the eigenvalue problem:
     scalapack distributed-memory algorithm (size of sub-group:  9*  9 procs)

 
     Parallelization info
     --------------------
     sticks:   dense  smooth     PW     G-vecs:    dense   smooth      PW
     Min         516     516    128               124316   124316   15532
     Max         518     518    130               124342   124342   15554
     Sum      102325  102325  25581             24616397 24616397 3077481
     Tot       51163   51163  12791
 
     Generating pointlists ...
     new r_m :   0.1100 (alat units)  6.2361 (a.u.) for type    1


     bravais-lattice index     =            1
     lattice parameter (alat)  =      56.6918  a.u.
     unit-cell volume          =  182205.0337 (a.u.)^3
     number of atoms/cell      =            2
     number of atomic types    =            1
     number of electrons       =        23.00 (up:  12.00, down:  11.00)
     number of Kohn-Sham states=           12
     kinetic-energy cutoff     =     100.0000  Ry
     charge density cutoff     =     400.0000  Ry
     convergence threshold     =      1.0E-09
     mixing beta               =       0.7000
     number of iterations used =            8  plain     mixing
     Exchange-correlation      = PBE ( 1  4  3  4 0 0)
     Assuming isolated system, Martyna-Tuckerman method


     celldm(1)=  56.691784  celldm(2)=   0.000000  celldm(3)=   0.000000
     celldm(4)=   0.000000  celldm(5)=   0.000000  celldm(6)=   0.000000

     crystal axes: (cart. coord. in units of alat)
               a(1) = (   1.000000   0.000000   0.000000 )  
               a(2) = (   0.000000   1.000000   0.000000 )  
               a(3) = (   0.000000   0.000000   1.000000 )  

     reciprocal axes: (cart. coord. in units 2 pi/alat)
               b(1) = (  1.000000  0.000000  0.000000 )  
               b(2) = (  0.000000  1.000000  0.000000 )  
               b(3) = (  0.000000  0.000000  1.000000 )  


     PseudoPot. # 1 for Zn read from file:
     ../Zn.pbe-mt_fhi.UPF
     MD5 check sum: 5596c9f2b89b9f7367257e7ea958b26e
     Pseudo is Norm-conserving, Zval = 12.0
     Generated using FHI98PP, converted with fhi2upf.x v.5.0.2
     Using radial grid of  527 points,  3 beta functions with: 
                l(1) =   1
                l(2) =   2
                l(3) =   3

     atomic species   valence    mass     pseudopotential
        Zn            12.00    65.39000     Zn( 1.00)

     Starting magnetic structure 
     atomic species   magnetization
        Zn           0.000

     No symmetry found


                                    s                        frac. trans.

      isym =  1     identity                                     

 cryst.   s( 1) = (     1          0          0      )
                  (     0          1          0      )
                  (     0          0          1      )

 cart.    s( 1) = (  1.0000000  0.0000000  0.0000000 )
                  (  0.0000000  1.0000000  0.0000000 )
                  (  0.0000000  0.0000000  1.0000000 )


     point group C_1 (1)    
     there are  1 classes
     the character table:

       E    
A      1.00

     the symmetry operations in each class:
     E        1

   Cartesian axes

     site n.     atom                  positions (alat units)
         1           Zn  tau(   1) = (   0.0000000   0.0000000   0.0000000  )
         2           Zn  tau(   2) = (   0.2666667   0.0000000   0.0000000  )

   Crystallographic axes

     site n.     atom                  positions (cryst. coord.)
         1           Zn  tau(   1) = (  0.0000000  0.0000000  0.0000000  )
         2           Zn  tau(   2) = (  0.2666667  0.0000000  0.0000000  )

     number of k points=     2
                       cart. coord. in units 2pi/alat
        k(    1) = (   0.0000000   0.0000000   0.0000000), wk =   1.0000000
        k(    2) = (   0.0000000   0.0000000   0.0000000), wk =   1.0000000

                       cryst. coord.
        k(    1) = (   0.0000000   0.0000000   0.0000000), wk =   1.0000000
        k(    2) = (   0.0000000   0.0000000   0.0000000), wk =   1.0000000

     Dense  grid: 12308199 G-vectors     FFT dimensions: ( 375, 375, 375)

     Largest allocated arrays     est. size (Mb)     dimensions
        Kohn-Sham Wavefunctions         1.42 Mb     (    7771,   12)
        NL pseudopotentials             3.56 Mb     (    7771,   30)
        Each V/rho on FFT grid          8.58 Mb     (  281250,   2)
        Each G-vector array             0.47 Mb     (   62165)
        G-vector shells                 0.13 Mb     (   16426)
     Largest temporary arrays     est. size (Mb)     dimensions
        Auxiliary wavefunctions         2.85 Mb     (    7771,   48)
        Each subspace H/S matrix        0.00 Mb     (       5,    5)
        Each <psi_i|beta_j> matrix      0.00 Mb     (      30,   12)
        Arrays for rho mixing          34.33 Mb     (  281250,    8)
 
     Using Hirshfeld
        Amplitude [Ry a.u.] :  3.3000E-01
        Acceptor Fragment start :           2
        Acceptor Fragment end   :           2
 

     Initial potential from superposition of free atoms
     Check: negative starting charge=(component1):   -0.005099
     Check: negative starting charge=(component2):   -0.005099

     starting charge   23.99975, renormalised to   23.00000

     negative rho (up, down):  4.887E-03 4.887E-03
     Starting wfc are   32 randomized atomic wfcs

     total cpu time spent up to now is       28.3 secs

     per-process dynamical memory:    83.6 Mb

     Self-consistent Calculation

     iteration #  1     ecut=   100.00 Ry     beta=0.70
     Davidson diagonalization with overlap
     ethr =  1.00E-02,  avg # of iterations =  2.0

     negative rho (up, down):  1.355E-03 1.404E-03
 
     Magnetic moment per site:
     atom:    1    charge:   11.1464    magn:    0.6988    constr:    0.0000
     atom:    2    charge:   11.8458    magn:    0.0000    constr:    0.0000

     total cpu time spent up to now is       34.2 secs

     The total energy is the sum of the following terms:

     one-electron contribution =    -437.56635264 Ry
     hartree contribution      =     226.09763429 Ry
     xc contribution           =     -32.75606240 Ry
     ewald contribution        =      19.05037951 Ry

     total energy              =    -220.75040040 Ry
     Harris-Foulkes estimate   =    -221.31491591 Ry
     estimated scf accuracy    <       0.72267297 Ry

     total magnetization       =     1.00 Bohr mag/cell
     absolute magnetization    =     1.01 Bohr mag/cell

     iteration #  2     ecut=   100.00 Ry     beta=0.70
     Davidson diagonalization with overlap
     ethr =  3.14E-03,  avg # of iterations =  3.0

     negative rho (up, down):  5.736E-04 6.060E-04
 
     Magnetic moment per site:
     atom:    1    charge:   11.0639    magn:    0.8664    constr:    0.0000
     atom:    2    charge:   11.9284    magn:    0.0000    constr:    0.0000

     total cpu time spent up to now is       40.4 secs

     The total energy is the sum of the following terms:

     one-electron contribution =    -429.28955154 Ry
     hartree contribution      =     223.44772134 Ry
     xc contribution           =     -32.35799497 Ry
     ewald contribution        =      19.05037951 Ry

     total energy              =    -220.91467046 Ry
     Harris-Foulkes estimate   =    -220.95904704 Ry
     estimated scf accuracy    <       0.06942882 Ry

     total magnetization       =     1.00 Bohr mag/cell
     absolute magnetization    =     1.01 Bohr mag/cell

     iteration #  3     ecut=   100.00 Ry     beta=0.70
     Davidson diagonalization with overlap
     ethr =  3.02E-04,  avg # of iterations =  2.0

     negative rho (up, down):  8.916E-05 9.608E-05
 
     Magnetic moment per site:
     atom:    1    charge:   11.0101    magn:    0.9768    constr:    0.0000
     atom:    2    charge:   11.9815    magn:    0.0000    constr:    0.0000

     total cpu time spent up to now is       46.0 secs

     The total energy is the sum of the following terms:

     one-electron contribution =    -431.59926567 Ry
     hartree contribution      =     223.78677183 Ry
     xc contribution           =     -32.41368015 Ry
     ewald contribution        =      19.05037951 Ry

     total energy              =    -220.93204006 Ry
     Harris-Foulkes estimate   =    -220.93341368 Ry
     estimated scf accuracy    <       0.00299219 Ry

     total magnetization       =     1.00 Bohr mag/cell
     absolute magnetization    =     1.02 Bohr mag/cell

     iteration #  4     ecut=   100.00 Ry     beta=0.70
     Davidson diagonalization with overlap
     ethr =  1.30E-05,  avg # of iterations =  3.0

     negative rho (up, down):  1.252E-05 1.364E-05
 
     Magnetic moment per site:
     atom:    1    charge:   11.0010    magn:    0.9957    constr:    0.0000
     atom:    2    charge:   11.9902    magn:    0.0000    constr:    0.0000

     total cpu time spent up to now is       51.8 secs

     The total energy is the sum of the following terms:

     one-electron contribution =    -431.29855776 Ry
     hartree contribution      =     223.77677263 Ry
     xc contribution           =     -32.41611533 Ry
     ewald contribution        =      19.05037951 Ry

     total energy              =    -220.93270121 Ry
     Harris-Foulkes estimate   =    -220.93273788 Ry
     estimated scf accuracy    <       0.00019576 Ry

     total magnetization       =     1.00 Bohr mag/cell
     absolute magnetization    =     1.02 Bohr mag/cell

     iteration #  5     ecut=   100.00 Ry     beta=0.70
     Davidson diagonalization with overlap
     ethr =  8.51E-07,  avg # of iterations =  2.5
 
     Magnetic moment per site:
     atom:    1    charge:   10.9993    magn:    0.9993    constr:    0.0000
     atom:    2    charge:   11.9917    magn:    0.0000    constr:    0.0000

     total cpu time spent up to now is       57.6 secs

     The total energy is the sum of the following terms:

     one-electron contribution =    -431.32092687 Ry
     hartree contribution      =     223.75928834 Ry
     xc contribution           =     -32.41507314 Ry
     ewald contribution        =      19.05037951 Ry

     total energy              =    -220.93273690 Ry
     Harris-Foulkes estimate   =    -220.93273292 Ry
     estimated scf accuracy    <       0.00000759 Ry

     total magnetization       =     1.00 Bohr mag/cell
     absolute magnetization    =     1.02 Bohr mag/cell

     iteration #  6     ecut=   100.00 Ry     beta=0.70
     Davidson diagonalization with overlap
     ethr =  3.30E-08,  avg # of iterations =  3.5
 
     Magnetic moment per site:
     atom:    1    charge:   10.9993    magn:    0.9994    constr:    0.0000
     atom:    2    charge:   11.9917    magn:    0.0000    constr:    0.0000

     total cpu time spent up to now is       63.7 secs

     The total energy is the sum of the following terms:

     one-electron contribution =    -431.33449242 Ry
     hartree contribution      =     223.76427996 Ry
     xc contribution           =     -32.41558975 Ry
     ewald contribution        =      19.05037951 Ry

     total energy              =    -220.93273841 Ry
     Harris-Foulkes estimate   =    -220.93273876 Ry
     estimated scf accuracy    <       0.00000071 Ry

     total magnetization       =     1.00 Bohr mag/cell
     absolute magnetization    =     1.02 Bohr mag/cell

     iteration #  7     ecut=   100.00 Ry     beta=0.70
     Davidson diagonalization with overlap
     ethr =  3.10E-09,  avg # of iterations =  4.5
 
     Magnetic moment per site:
     atom:    1    charge:   10.9993    magn:    0.9994    constr:    0.0000
     atom:    2    charge:   11.9917    magn:    0.0000    constr:    0.0000

     total cpu time spent up to now is       70.0 secs

     The total energy is the sum of the following terms:

     one-electron contribution =    -431.33028171 Ry
     hartree contribution      =     223.76396071 Ry
     xc contribution           =     -32.41557494 Ry
     ewald contribution        =      19.05037951 Ry

     total energy              =    -220.93273867 Ry
     Harris-Foulkes estimate   =    -220.93273869 Ry
     estimated scf accuracy    <       0.00000008 Ry

     total magnetization       =     1.00 Bohr mag/cell
     absolute magnetization    =     1.02 Bohr mag/cell

     iteration #  8     ecut=   100.00 Ry     beta=0.70
     Davidson diagonalization with overlap
     ethr =  3.56E-10,  avg # of iterations =  2.5
 
     Magnetic moment per site:
     atom:    1    charge:   10.9994    magn:    0.9994    constr:    0.0000
     atom:    2    charge:   11.9917    magn:    0.0000    constr:    0.0000

     total cpu time spent up to now is       75.6 secs

     The total energy is the sum of the following terms:

     one-electron contribution =    -431.33065417 Ry
     hartree contribution      =     223.76362897 Ry
     xc contribution           =     -32.41554323 Ry
     ewald contribution        =      19.05037951 Ry

     total energy              =    -220.93273867 Ry
     Harris-Foulkes estimate   =    -220.93273868 Ry
     estimated scf accuracy    <       0.00000001 Ry

     total magnetization       =     1.00 Bohr mag/cell
     absolute magnetization    =     1.02 Bohr mag/cell

     iteration #  9     ecut=   100.00 Ry     beta=0.70
     Davidson diagonalization with overlap
     ethr =  6.20E-11,  avg # of iterations =  3.0
 
     Magnetic moment per site:
     atom:    1    charge:   10.9994    magn:    0.9994    constr:    0.0000
     atom:    2    charge:   11.9917    magn:    0.0000    constr:    0.0000

     total cpu time spent up to now is       81.1 secs

     End of self-consistent calculation

 ------ SPIN UP ------------


          k = 0.0000 0.0000 0.0000 (****** PWs)   bands (ev):

   -16.4345 -16.4326 -16.4326 -16.4296 -16.4290 -15.3545 -15.3544 -15.3539
   -15.3539 -15.3539 -12.2724 -10.0032

     occupation numbers 
     1.0000   1.0000   1.0000   1.0000   1.0000   1.0000   1.0000   1.0000
     1.0000   1.0000   1.0000   1.0000

 ------ SPIN DOWN ----------


          k = 0.0000 0.0000 0.0000 (****** PWs)   bands (ev):

   -16.4345 -16.4326 -16.4326 -16.4296 -16.4290 -15.1026 -15.1024 -15.1020
   -15.1019 -15.1019 -12.2724  -8.7944

     occupation numbers 
     1.0000   1.0000   1.0000   1.0000   1.0000   1.0000   1.0000   1.0000
     1.0000   1.0000   1.0000   0.0000

     highest occupied level (ev):   -10.0032

     The total energy is the sum of the following terms:

     one-electron contribution =    -431.33103528 Ry
     hartree contribution      =     223.76343945 Ry
     xc contribution           =     -32.41552236 Ry
     ewald contribution        =      19.05037951 Ry

!    total energy              =    -220.93273868 Ry
     Harris-Foulkes estimate   =    -220.93273867 Ry
     estimated scf accuracy    <          4.5E-10 Ry

     The total energy is the sum of the following terms:

     one-electron contribution =    -431.33103528 Ry
     hartree contribution      =     223.76343945 Ry
     xc contribution           =     -32.41552236 Ry
     ewald contribution        =      19.05037951 Ry

     total magnetization       =     1.00 Bohr mag/cell
     absolute magnetization    =     1.02 Bohr mag/cell

     convergence has been achieved in   9 iterations
 
     Using Hirshfeld
        Amplitude [Ry a.u.] :  3.3000E-01
        Acceptor Fragment start :           2
        Acceptor Fragment end   :           2
 
     E field correction :   0.329894411901208       Ry
     Total charge in well     :  -0.999680036064236       Ha atomic units

     Writing output data file right.save
 
     init_run     :     26.21s CPU     28.18s WALL (       1 calls)
     electrons    :     58.45s CPU     61.57s WALL (       1 calls)

     Called by init_run:
     wfcinit      :      2.56s CPU      2.61s WALL (       1 calls)
     potinit      :      1.98s CPU      2.23s WALL (       1 calls)

     Called by electrons:
     c_bands      :     27.68s CPU     27.80s WALL (       9 calls)
     sum_band     :      7.25s CPU      7.54s WALL (       9 calls)
     v_of_rho     :     14.43s CPU     15.84s WALL (      10 calls)
     v_h          :      0.86s CPU      0.99s WALL (      10 calls)
     v_xc         :     13.54s CPU     14.82s WALL (      10 calls)
     mix_rho      :      2.68s CPU      2.87s WALL (       9 calls)

     Called by c_bands:
     init_us_2    :      0.34s CPU      0.33s WALL (      38 calls)
     regterg      :     26.87s CPU     26.94s WALL (      18 calls)

     Called by sum_band:

     Called by *egterg:
     h_psi        :     26.29s CPU     26.38s WALL (      72 calls)
     g_psi        :      0.06s CPU      0.05s WALL (      52 calls)
     rdiaghg      :      0.41s CPU      0.40s WALL (      70 calls)
     regterg:over :      0.80s CPU      0.80s WALL (      52 calls)
     regterg:upda :      0.92s CPU      0.93s WALL (      52 calls)
     regterg:last :      0.32s CPU      0.31s WALL (      18 calls)
     rdiaghg:chol :      0.04s CPU      0.04s WALL (      70 calls)
     rdiaghg:inve :      0.01s CPU      0.01s WALL (      70 calls)
     rdiaghg:para :      0.04s CPU      0.04s WALL (     140 calls)

     Called by h_psi:
     h_psi:vloc   :     25.65s CPU     25.75s WALL (      72 calls)
     h_psi:vnl    :      0.51s CPU      0.51s WALL (      72 calls)
     add_vuspsi   :      0.22s CPU      0.23s WALL (      72 calls)

     General routines
     calbec       :      0.28s CPU      0.28s WALL (      72 calls)
     fft          :     18.67s CPU     21.09s WALL (     272 calls)
     fftw         :     25.87s CPU     25.94s WALL (     812 calls)
 
     Parallel routines
     fft_scatter  :     26.60s CPU     28.99s WALL (    1084 calls)
 
     PWSCF        :  2m14.45s CPU     2m35.98s WALL

 
   This run was terminated on:  13:36:50  11Aug2015            

=------------------------------------------------------------------------------=
   JOB DONE.
=------------------------------------------------------------------------------=
Application 57820845 resources: utime ~29530s, stime ~1551s, Rss ~2184936, inblocks ~2262901, outblocks ~10897990
