
     Program PWSCF v.5.1.1 starts on 11Aug2015 at 13:24:26 

     This program is part of the open-source Quantum ESPRESSO suite
     for quantum simulation of materials; please cite
         "P. Giannozzi et al., J. Phys.:Condens. Matter 21 395502 (2009);
          URL http://www.quantum-espresso.org", 
     in publications or presentations arising from this work. More details at
     http://www.quantum-espresso.org/quote

     Parallel version (MPI & OpenMP), running on     198 processor cores
     Number of MPI processes:               198
     Threads/MPI process:                     1
     R & G space division:  proc/nbgrp/npool/nimage =     198
     Waiting for input...
     Reading input from standard input

     Current dimensions of program PWSCF are:
     Max number of different atomic species (ntypx) = 10
     Max number of k-points (npk) =  40000
     Max angular momentum in pseudopotentials (lmaxx) =  3
               file Zn.pbe-mt_fhi.UPF: wavefunction(s)  4p 4f renormalized

     gamma-point specific algorithms are used
     Message from routine setup:
     the system is metallic, specify occupations

     Subspace diagonalization in iterative solution of the eigenvalue problem:
     scalapack distributed-memory algorithm (size of sub-group:  9*  9 procs)

 
     Parallelization info
     --------------------
     sticks:   dense  smooth     PW     G-vecs:    dense   smooth      PW
     Min         516     516    128               124316   124316   15532
     Max         518     518    130               124342   124342   15554
     Sum      102325  102325  25581             24616397 24616397 3077481
     Tot       51163   51163  12791
 
     Generating pointlists ...
     new r_m :   0.0963 (alat units)  5.4566 (a.u.) for type    1


     bravais-lattice index     =            1
     lattice parameter (alat)  =      56.6918  a.u.
     unit-cell volume          =  182205.0337 (a.u.)^3
     number of atoms/cell      =            2
     number of atomic types    =            1
     number of electrons       =        23.00 (up:  12.00, down:  11.00)
     number of Kohn-Sham states=           12
     kinetic-energy cutoff     =     100.0000  Ry
     charge density cutoff     =     400.0000  Ry
     convergence threshold     =      1.0E-09
     mixing beta               =       0.7000
     number of iterations used =            8  plain     mixing
     Exchange-correlation      = PBE ( 1  4  3  4 0 0)
     Assuming isolated system, Martyna-Tuckerman method


     celldm(1)=  56.691784  celldm(2)=   0.000000  celldm(3)=   0.000000
     celldm(4)=   0.000000  celldm(5)=   0.000000  celldm(6)=   0.000000

     crystal axes: (cart. coord. in units of alat)
               a(1) = (   1.000000   0.000000   0.000000 )  
               a(2) = (   0.000000   1.000000   0.000000 )  
               a(3) = (   0.000000   0.000000   1.000000 )  

     reciprocal axes: (cart. coord. in units 2 pi/alat)
               b(1) = (  1.000000  0.000000  0.000000 )  
               b(2) = (  0.000000  1.000000  0.000000 )  
               b(3) = (  0.000000  0.000000  1.000000 )  


     PseudoPot. # 1 for Zn read from file:
     ../Zn.pbe-mt_fhi.UPF
     MD5 check sum: 5596c9f2b89b9f7367257e7ea958b26e
     Pseudo is Norm-conserving, Zval = 12.0
     Generated using FHI98PP, converted with fhi2upf.x v.5.0.2
     Using radial grid of  527 points,  3 beta functions with: 
                l(1) =   1
                l(2) =   2
                l(3) =   3

     atomic species   valence    mass     pseudopotential
        Zn            12.00    65.39000     Zn( 1.00)

     Starting magnetic structure 
     atomic species   magnetization
        Zn           0.000

     No symmetry found


                                    s                        frac. trans.

      isym =  1     identity                                     

 cryst.   s( 1) = (     1          0          0      )
                  (     0          1          0      )
                  (     0          0          1      )

 cart.    s( 1) = (  1.0000000  0.0000000  0.0000000 )
                  (  0.0000000  1.0000000  0.0000000 )
                  (  0.0000000  0.0000000  1.0000000 )


     point group C_1 (1)    
     there are  1 classes
     the character table:

       E    
A      1.00

     the symmetry operations in each class:
     E        1

   Cartesian axes

     site n.     atom                  positions (alat units)
         1           Zn  tau(   1) = (   0.0000000   0.0000000   0.0000000  )
         2           Zn  tau(   2) = (   0.2333333   0.0000000   0.0000000  )

   Crystallographic axes

     site n.     atom                  positions (cryst. coord.)
         1           Zn  tau(   1) = (  0.0000000  0.0000000  0.0000000  )
         2           Zn  tau(   2) = (  0.2333333  0.0000000  0.0000000  )

     number of k points=     2
                       cart. coord. in units 2pi/alat
        k(    1) = (   0.0000000   0.0000000   0.0000000), wk =   1.0000000
        k(    2) = (   0.0000000   0.0000000   0.0000000), wk =   1.0000000

                       cryst. coord.
        k(    1) = (   0.0000000   0.0000000   0.0000000), wk =   1.0000000
        k(    2) = (   0.0000000   0.0000000   0.0000000), wk =   1.0000000

     Dense  grid: 12308199 G-vectors     FFT dimensions: ( 375, 375, 375)

     Largest allocated arrays     est. size (Mb)     dimensions
        Kohn-Sham Wavefunctions         1.42 Mb     (    7771,   12)
        NL pseudopotentials             3.56 Mb     (    7771,   30)
        Each V/rho on FFT grid          8.58 Mb     (  281250,   2)
        Each G-vector array             0.47 Mb     (   62165)
        G-vector shells                 0.13 Mb     (   16426)
     Largest temporary arrays     est. size (Mb)     dimensions
        Auxiliary wavefunctions         2.85 Mb     (    7771,   48)
        Each subspace H/S matrix        0.00 Mb     (       5,    5)
        Each <psi_i|beta_j> matrix      0.00 Mb     (      30,   12)
        Arrays for rho mixing          34.33 Mb     (  281250,    8)
 
     Using Hirshfeld
        Amplitude [Ry a.u.] :  3.3000E-01
        Acceptor Fragment start :           1
        Acceptor Fragment end   :           1
 

     Initial potential from superposition of free atoms
     Check: negative starting charge=(component1):   -0.005032
     Check: negative starting charge=(component2):   -0.005032

     starting charge   23.99975, renormalised to   23.00000

     negative rho (up, down):  4.823E-03 4.823E-03
     Starting wfc are   32 randomized atomic wfcs

     total cpu time spent up to now is       28.3 secs

     per-process dynamical memory:    83.6 Mb

     Self-consistent Calculation

     iteration #  1     ecut=   100.00 Ry     beta=0.70
     Davidson diagonalization with overlap
     ethr =  1.00E-02,  avg # of iterations =  2.0

     negative rho (up, down):  1.344E-03 1.384E-03
 
     Magnetic moment per site:
     atom:    1    charge:   11.8377    magn:    0.0001    constr:    0.0000
     atom:    2    charge:   11.1395    magn:    0.6965    constr:    0.0000

     total cpu time spent up to now is       34.2 secs

     The total energy is the sum of the following terms:

     one-electron contribution =    -442.78621234 Ry
     hartree contribution      =     228.59683616 Ry
     xc contribution           =     -32.75568338 Ry
     ewald contribution        =      21.77186230 Ry

     total energy              =    -220.75011278 Ry
     Harris-Foulkes estimate   =    -221.31037480 Ry
     estimated scf accuracy    <       0.71840460 Ry

     total magnetization       =     1.00 Bohr mag/cell
     absolute magnetization    =     1.00 Bohr mag/cell

     iteration #  2     ecut=   100.00 Ry     beta=0.70
     Davidson diagonalization with overlap
     ethr =  3.12E-03,  avg # of iterations =  3.0

     negative rho (up, down):  5.715E-04 5.993E-04
 
     Magnetic moment per site:
     atom:    1    charge:   11.9163    magn:    0.0001    constr:    0.0000
     atom:    2    charge:   11.0593    magn:    0.8634    constr:    0.0000

     total cpu time spent up to now is       40.3 secs

     The total energy is the sum of the following terms:

     one-electron contribution =    -434.51990122 Ry
     hartree contribution      =     225.95623544 Ry
     xc contribution           =     -32.35855200 Ry
     ewald contribution        =      21.77186230 Ry

     total energy              =    -220.91470783 Ry
     Harris-Foulkes estimate   =    -220.95865257 Ry
     estimated scf accuracy    <       0.06902246 Ry

     total magnetization       =     1.00 Bohr mag/cell
     absolute magnetization    =     1.01 Bohr mag/cell

     iteration #  3     ecut=   100.00 Ry     beta=0.70
     Davidson diagonalization with overlap
     ethr =  3.00E-04,  avg # of iterations =  2.0

     negative rho (up, down):  9.187E-05 9.805E-05
 
     Magnetic moment per site:
     atom:    1    charge:   11.9673    magn:    0.0001    constr:    0.0000
     atom:    2    charge:   11.0075    magn:    0.9736    constr:    0.0000

     total cpu time spent up to now is       45.9 secs

     The total energy is the sum of the following terms:

     one-electron contribution =    -436.82589046 Ry
     hartree contribution      =     226.29337017 Ry
     xc contribution           =     -32.41373567 Ry
     ewald contribution        =      21.77186230 Ry

     total energy              =    -220.93212711 Ry
     Harris-Foulkes estimate   =    -220.93339757 Ry
     estimated scf accuracy    <       0.00289954 Ry

     total magnetization       =     1.00 Bohr mag/cell
     absolute magnetization    =     1.02 Bohr mag/cell

     iteration #  4     ecut=   100.00 Ry     beta=0.70
     Davidson diagonalization with overlap
     ethr =  1.26E-05,  avg # of iterations =  3.0

     negative rho (up, down):  1.328E-05 1.432E-05
 
     Magnetic moment per site:
     atom:    1    charge:   11.9756    magn:    0.0001    constr:    0.0000
     atom:    2    charge:   10.9987    magn:    0.9932    constr:    0.0000

     total cpu time spent up to now is       51.7 secs

     The total energy is the sum of the following terms:

     one-electron contribution =    -436.53151551 Ry
     hartree contribution      =     226.28636662 Ry
     xc contribution           =     -32.41650161 Ry
     ewald contribution        =      21.77186230 Ry

     total energy              =    -220.93279335 Ry
     Harris-Foulkes estimate   =    -220.93282342 Ry
     estimated scf accuracy    <       0.00019249 Ry

     total magnetization       =     1.00 Bohr mag/cell
     absolute magnetization    =     1.02 Bohr mag/cell

     iteration #  5     ecut=   100.00 Ry     beta=0.70
     Davidson diagonalization with overlap
     ethr =  8.37E-07,  avg # of iterations =  2.5
 
     Magnetic moment per site:
     atom:    1    charge:   11.9769    magn:    0.0000    constr:    0.0000
     atom:    2    charge:   10.9971    magn:    0.9971    constr:    0.0000

     total cpu time spent up to now is       57.4 secs

     The total energy is the sum of the following terms:

     one-electron contribution =    -436.55136475 Ry
     hartree contribution      =     226.26859046 Ry
     xc contribution           =     -32.41540749 Ry
     ewald contribution        =      21.77186230 Ry

     total energy              =    -220.93282917 Ry
     Harris-Foulkes estimate   =    -220.93282472 Ry
     estimated scf accuracy    <       0.00000785 Ry

     total magnetization       =     1.00 Bohr mag/cell
     absolute magnetization    =     1.02 Bohr mag/cell

     iteration #  6     ecut=   100.00 Ry     beta=0.70
     Davidson diagonalization with overlap
     ethr =  3.41E-08,  avg # of iterations =  5.0
 
     Magnetic moment per site:
     atom:    1    charge:   11.9769    magn:    0.0000    constr:    0.0000
     atom:    2    charge:   10.9971    magn:    0.9972    constr:    0.0000

     total cpu time spent up to now is       63.8 secs

     The total energy is the sum of the following terms:

     one-electron contribution =    -436.56590845 Ry
     hartree contribution      =     226.27424868 Ry
     xc contribution           =     -32.41604645 Ry
     ewald contribution        =      21.77186230 Ry

     total energy              =    -220.93283088 Ry
     Harris-Foulkes estimate   =    -220.93283118 Ry
     estimated scf accuracy    <       0.00000072 Ry

     total magnetization       =     1.00 Bohr mag/cell
     absolute magnetization    =     1.02 Bohr mag/cell

     iteration #  7     ecut=   100.00 Ry     beta=0.70
     Davidson diagonalization with overlap
     ethr =  3.12E-09,  avg # of iterations =  3.5
 
     Magnetic moment per site:
     atom:    1    charge:   11.9769    magn:    0.0000    constr:    0.0000
     atom:    2    charge:   10.9972    magn:    0.9972    constr:    0.0000

     total cpu time spent up to now is       69.8 secs

     The total energy is the sum of the following terms:

     one-electron contribution =    -436.56118245 Ry
     hartree contribution      =     226.27375952 Ry
     xc contribution           =     -32.41599749 Ry
     ewald contribution        =      21.77186230 Ry

     total energy              =    -220.93283113 Ry
     Harris-Foulkes estimate   =    -220.93283115 Ry
     estimated scf accuracy    <       0.00000006 Ry

     total magnetization       =     1.00 Bohr mag/cell
     absolute magnetization    =     1.02 Bohr mag/cell

     iteration #  8     ecut=   100.00 Ry     beta=0.70
     Davidson diagonalization with overlap
     ethr =  2.42E-10,  avg # of iterations =  2.5
 
     Magnetic moment per site:
     atom:    1    charge:   11.9769    magn:    0.0000    constr:    0.0000
     atom:    2    charge:   10.9972    magn:    0.9972    constr:    0.0000

     total cpu time spent up to now is       75.6 secs

     The total energy is the sum of the following terms:

     one-electron contribution =    -436.56174605 Ry
     hartree contribution      =     226.27347560 Ry
     xc contribution           =     -32.41596716 Ry
     ewald contribution        =      21.77186230 Ry

     total energy              =    -220.93283113 Ry
     Harris-Foulkes estimate   =    -220.93283114 Ry
     estimated scf accuracy    <          7.1E-09 Ry

     total magnetization       =     1.00 Bohr mag/cell
     absolute magnetization    =     1.02 Bohr mag/cell

     iteration #  9     ecut=   100.00 Ry     beta=0.70
     Davidson diagonalization with overlap
     ethr =  3.10E-11,  avg # of iterations =  3.5
 
     Magnetic moment per site:
     atom:    1    charge:   11.9769    magn:    0.0000    constr:    0.0000
     atom:    2    charge:   10.9972    magn:    0.9972    constr:    0.0000

     total cpu time spent up to now is       81.2 secs

     End of self-consistent calculation

 ------ SPIN UP ------------


          k = 0.0000 0.0000 0.0000 (****** PWs)   bands (ev):

   -16.6848 -16.6823 -16.6823 -16.6775 -16.6769 -15.3448 -15.3442 -15.3441
   -15.3441 -15.3439 -12.5229  -9.9933

     occupation numbers 
     1.0000   1.0000   1.0000   1.0000   1.0000   1.0000   1.0000   1.0000
     1.0000   1.0000   1.0000   1.0000

 ------ SPIN DOWN ----------


          k = 0.0000 0.0000 0.0000 (****** PWs)   bands (ev):

   -16.6848 -16.6823 -16.6823 -16.6775 -16.6769 -15.0929 -15.0923 -15.0922
   -15.0922 -15.0920 -12.5228  -8.7852

     occupation numbers 
     1.0000   1.0000   1.0000   1.0000   1.0000   1.0000   1.0000   1.0000
     1.0000   1.0000   1.0000   0.0000

     highest occupied level (ev):    -9.9933

     The total energy is the sum of the following terms:

     one-electron contribution =    -436.56199437 Ry
     hartree contribution      =     226.27323860 Ry
     xc contribution           =     -32.41593766 Ry
     ewald contribution        =      21.77186230 Ry

!    total energy              =    -220.93283114 Ry
     Harris-Foulkes estimate   =    -220.93283114 Ry
     estimated scf accuracy    <          4.8E-10 Ry

     The total energy is the sum of the following terms:

     one-electron contribution =    -436.56199437 Ry
     hartree contribution      =     226.27323860 Ry
     xc contribution           =     -32.41593766 Ry
     ewald contribution        =      21.77186230 Ry

     total magnetization       =     1.00 Bohr mag/cell
     absolute magnetization    =     1.02 Bohr mag/cell

     convergence has been achieved in   9 iterations
 
     Using Hirshfeld
        Amplitude [Ry a.u.] :  3.3000E-01
        Acceptor Fragment start :           1
        Acceptor Fragment end   :           1
 
     E field correction :   0.329655066803159       Ry
     Total charge in well     :  -0.998954747888369       Ha atomic units

     Writing output data file left.save
 
     init_run     :     26.09s CPU     28.19s WALL (       1 calls)
     electrons    :     58.61s CPU     61.78s WALL (       1 calls)

     Called by init_run:
     wfcinit      :      2.58s CPU      2.61s WALL (       1 calls)
     potinit      :      1.95s CPU      2.19s WALL (       1 calls)

     Called by electrons:
     c_bands      :     27.96s CPU     28.11s WALL (       9 calls)
     sum_band     :      7.13s CPU      7.45s WALL (       9 calls)
     v_of_rho     :     14.30s CPU     15.70s WALL (      10 calls)
     v_h          :      0.89s CPU      0.99s WALL (      10 calls)
     v_xc         :     13.38s CPU     14.69s WALL (      10 calls)
     mix_rho      :      2.70s CPU      2.85s WALL (       9 calls)

     Called by c_bands:
     init_us_2    :      0.30s CPU      0.33s WALL (      38 calls)
     regterg      :     27.14s CPU     27.25s WALL (      18 calls)

     Called by sum_band:

     Called by *egterg:
     h_psi        :     26.47s CPU     26.56s WALL (      74 calls)
     g_psi        :      0.03s CPU      0.05s WALL (      54 calls)
     rdiaghg      :      0.42s CPU      0.45s WALL (      72 calls)
     regterg:over :      0.86s CPU      0.84s WALL (      54 calls)
     regterg:upda :      0.97s CPU      0.96s WALL (      54 calls)
     regterg:last :      0.33s CPU      0.32s WALL (      18 calls)
     rdiaghg:chol :      0.04s CPU      0.04s WALL (      72 calls)
     rdiaghg:inve :      0.01s CPU      0.01s WALL (      72 calls)
     rdiaghg:para :      0.04s CPU      0.05s WALL (     144 calls)

     Called by h_psi:
     h_psi:vloc   :     25.82s CPU     25.91s WALL (      74 calls)
     h_psi:vnl    :      0.54s CPU      0.52s WALL (      74 calls)
     add_vuspsi   :      0.25s CPU      0.24s WALL (      74 calls)

     General routines
     calbec       :      0.29s CPU      0.28s WALL (      74 calls)
     fft          :     18.49s CPU     20.91s WALL (     272 calls)
     fftw         :     25.87s CPU     25.97s WALL (     820 calls)
 
     Parallel routines
     fft_scatter  :     26.22s CPU     28.65s WALL (    1092 calls)
 
     PWSCF        :  2m14.83s CPU     2m36.85s WALL

 
   This run was terminated on:  13:27: 3  11Aug2015            

=------------------------------------------------------------------------------=
   JOB DONE.
=------------------------------------------------------------------------------=
Application 57820121 resources: utime ~29690s, stime ~1549s, Rss ~2184864, inblocks ~2282567, outblocks ~10898701
