2016-01-08 19:48:17.217 (INFO ) [0xfffaba1c410] ibm.runjob.AbstractOptions: using properties file /bgsys/local/etc/bg.properties
2016-01-08 19:48:17.218 (INFO ) [0xfffaba1c410] ibm.runjob.AbstractOptions: max open file descriptors: 65536
2016-01-08 19:48:17.218 (INFO ) [0xfffaba1c410] ibm.runjob.AbstractOptions: core file limit: 18446744073709551615
2016-01-08 19:48:17.219 (INFO ) [0xfffaba1c410] 5633:tatu.runjob.client: scheduler job id is 692566
2016-01-08 19:48:17.226 (INFO ) [0xfff84ca34e0] 5633:tatu.runjob.monitor: monitor started
2016-01-08 19:48:17.649 (INFO ) [0xfff84ca34e0] 5633:tatu.runjob.monitor: task record 1457316 created
2016-01-08 19:48:17.649 (INFO ) [0xfffaba1c410] CET-00000-11331-128:5633:ibm.runjob.client.options.Parser: set local socket to runjob_mux from properties file
2016-01-08 19:48:20.615 (INFO ) [0xfffaba1c410] CET-00000-11331-128:1513580:ibm.runjob.client.Job: job 1513580 started

     Program PWSCF v.5.1.1 starts on  8Jan2016 at 19:48:20 

     This program is part of the open-source Quantum ESPRESSO suite
     for quantum simulation of materials; please cite
         "P. Giannozzi et al., J. Phys.:Condens. Matter 21 395502 (2009);
          URL http://www.quantum-espresso.org", 
     in publications or presentations arising from this work. More details at
     http://www.quantum-espresso.org/quote

     Parallel version (MPI & OpenMP), running on    1024 processor cores
     Number of MPI processes:              1024
     Threads/MPI process:                     1
     R & G space division:  proc/nbgrp/npool/nimage =    1024
     Waiting for input...
     Reading input from standard input

     Current dimensions of program PWSCF are:
     Max number of different atomic species (ntypx) = 10
     Max number of k-points (npk) =  40000
     Max angular momentum in pseudopotentials (lmaxx) =  3
               file C.pbe-mt_fhi.UPF: wavefunction(s)  4f renormalized
               file H.pbe-mt_fhi.UPF: wavefunction(s)  2p 4f renormalized
               file Cl.pbe-mt_fhi.UPF: wavefunction(s)  4f renormalized

     gamma-point specific algorithms are used
     Message from routine setup:
     the system is metallic, specify occupations

     Subspace diagonalization in iterative solution of the eigenvalue problem:
     scalapack distributed-memory algorithm (size of sub-group: 22* 22 procs)

 
     Parallelization info
     --------------------
     sticks:   dense  smooth     PW     G-vecs:    dense   smooth      PW
     Min          52      52     11                 9332     9332    1136
     Max          54      54     14                 9394     9394    1202
     Sum       54553   54553  13637              9587919  9587919 1198487
     Tot       27277   27277   6819
 
     Generating pointlists ...
     new r_m :   0.0224 (alat units)  0.8450 (a.u.) for type    1
     new r_m :   0.0224 (alat units)  0.8450 (a.u.) for type    2
     new r_m :   0.0635 (alat units)  2.4011 (a.u.) for type    3
2016-01-08 19:48:23.534 (INFO ) [0xfff84ca34e0] 5633:tatu.runjob.monitor: tracklib completed


     bravais-lattice index     =            1
     lattice parameter (alat)  =      37.7945  a.u.
     unit-cell volume          =   53986.6767 (a.u.)^3
     number of atoms/cell      =           13
     number of atomic types    =            3
     number of electrons       =        37.00 (up:  19.00, down:  18.00)
     number of Kohn-Sham states=           40
     kinetic-energy cutoff     =     120.0000  Ry
     charge density cutoff     =     480.0000  Ry
     convergence threshold     =      1.0E-12
     mixing beta               =       0.7000
     number of iterations used =            8  plain     mixing
     Exchange-correlation      = PBE ( 1  4  3  4 0 0)
     Assuming isolated system, Martyna-Tuckerman method


     celldm(1)=  37.794523  celldm(2)=   0.000000  celldm(3)=   0.000000
     celldm(4)=   0.000000  celldm(5)=   0.000000  celldm(6)=   0.000000

     crystal axes: (cart. coord. in units of alat)
               a(1) = (   1.000000   0.000000   0.000000 )  
               a(2) = (   0.000000   1.000000   0.000000 )  
               a(3) = (   0.000000   0.000000   1.000000 )  

     reciprocal axes: (cart. coord. in units 2 pi/alat)
               b(1) = (  1.000000  0.000000  0.000000 )  
               b(2) = (  0.000000  1.000000  0.000000 )  
               b(3) = (  0.000000  0.000000  1.000000 )  


     PseudoPot. # 1 for  C read from file:
     ./C.pbe-mt_fhi.UPF
     MD5 check sum: 058ca341f9d6d5327d9962fd88a91b65
     Pseudo is Norm-conserving, Zval =  4.0
     Generated using FHI98PP, converted with fhi2upf.x v.5.0.2
     Using radial grid of  461 points,  3 beta functions with: 
                l(1) =   0
                l(2) =   1
                l(3) =   3

     PseudoPot. # 2 for  H read from file:
     ./H.pbe-mt_fhi.UPF
     MD5 check sum: a19bd5488733b3d98581df861506e80d
     Pseudo is Norm-conserving, Zval =  1.0
     Generated using FHI98PP, converted with fhi2upf.x v.5.0.2
     Using radial grid of  387 points,  3 beta functions with: 
                l(1) =   0
                l(2) =   1
                l(3) =   3

     PseudoPot. # 3 for Cl read from file:
     ./Cl.pbe-mt_fhi.UPF
     MD5 check sum: 2690b95bbfe21454a1a3af22474751ef
     Pseudo is Norm-conserving, Zval =  7.0
     Generated using FHI98PP, converted with fhi2upf.x v.5.0.2
     Using radial grid of  503 points,  3 beta functions with: 
                l(1) =   0
                l(2) =   1
                l(3) =   3

     atomic species   valence    mass     pseudopotential
        C              4.00    12.01070      C( 1.00)
        H              1.00     1.00794      H( 1.00)
        Cl             7.00     1.00000     Cl( 1.00)

     Starting magnetic structure 
     atomic species   magnetization
        C            0.000
        H            0.000
        Cl           0.000

     No symmetry found


                                    s                        frac. trans.

      isym =  1     identity                                     

 cryst.   s( 1) = (     1          0          0      )
                  (     0          1          0      )
                  (     0          0          1      )

 cart.    s( 1) = (  1.0000000  0.0000000  0.0000000 )
                  (  0.0000000  1.0000000  0.0000000 )
                  (  0.0000000  0.0000000  1.0000000 )


     point group C_1 (1)    
     there are  1 classes
     the character table:

       E    
A      1.00

     the symmetry operations in each class:
     E        1

   Cartesian axes

     site n.     atom                  positions (alat units)
         1           C   tau(   1) = (   0.0000000   0.0698500   0.0000000  )
         2           C   tau(   2) = (   0.0604900   0.0349250   0.0000000  )
         3           C   tau(   3) = (   0.0604900  -0.0349250   0.0000000  )
         4           C   tau(   4) = (   0.0000000  -0.0698500   0.0000000  )
         5           C   tau(   5) = (  -0.0604900  -0.0349250   0.0000000  )
         6           C   tau(   6) = (  -0.0604900   0.0349250   0.0000000  )
         7           H   tau(   7) = (   0.0000000   0.1240500   0.0000000  )
         8           H   tau(   8) = (   0.1074300   0.0620250   0.0000000  )
         9           H   tau(   9) = (   0.1074300  -0.0620250   0.0000000  )
        10           H   tau(  10) = (   0.0000000  -0.1240500   0.0000000  )
        11           H   tau(  11) = (  -0.1074300  -0.0620250   0.0000000  )
        12           H   tau(  12) = (  -0.1074300   0.0620250   0.0000000  )
        13           Cl  tau(  13) = (   0.0302450   0.0523875   0.1500000  )

   Crystallographic axes

     site n.     atom                  positions (cryst. coord.)
         1           C   tau(   1) = (  0.0000000  0.0698500  0.0000000  )
         2           C   tau(   2) = (  0.0604900  0.0349250  0.0000000  )
         3           C   tau(   3) = (  0.0604900 -0.0349250  0.0000000  )
         4           C   tau(   4) = (  0.0000000 -0.0698500  0.0000000  )
         5           C   tau(   5) = ( -0.0604900 -0.0349250  0.0000000  )
         6           C   tau(   6) = ( -0.0604900  0.0349250  0.0000000  )
         7           H   tau(   7) = (  0.0000000  0.1240500  0.0000000  )
         8           H   tau(   8) = (  0.1074300  0.0620250  0.0000000  )
         9           H   tau(   9) = (  0.1074300 -0.0620250  0.0000000  )
        10           H   tau(  10) = (  0.0000000 -0.1240500  0.0000000  )
        11           H   tau(  11) = ( -0.1074300 -0.0620250  0.0000000  )
        12           H   tau(  12) = ( -0.1074300  0.0620250  0.0000000  )
        13           Cl  tau(  13) = (  0.0302450  0.0523875  0.1500000  )

     number of k points=     2
                       cart. coord. in units 2pi/alat
        k(    1) = (   0.0000000   0.0000000   0.0000000), wk =   1.0000000
        k(    2) = (   0.0000000   0.0000000   0.0000000), wk =   1.0000000

                       cryst. coord.
        k(    1) = (   0.0000000   0.0000000   0.0000000), wk =   1.0000000
        k(    2) = (   0.0000000   0.0000000   0.0000000), wk =   1.0000000

     Dense  grid:  4793960 G-vectors     FFT dimensions: ( 264, 264, 264)

     Largest allocated arrays     est. size (Mb)     dimensions
        Kohn-Sham Wavefunctions         0.35 Mb     (     572,   40)
        NL pseudopotentials             1.25 Mb     (     572,  143)
        Each V/rho on FFT grid          2.13 Mb     (   69696,   2)
        Each G-vector array             0.04 Mb     (    4670)
        G-vector shells                 0.02 Mb     (    2136)
     Largest temporary arrays     est. size (Mb)     dimensions
        Each subspace H/S matrix        0.00 Mb     (       1,    1)
        Each <psi_i|beta_j> matrix      0.04 Mb     (     143,   40)
        Arrays for rho mixing           8.51 Mb     (   69696,    8)
 
     Using Hirshfeld
        Amplitude [Ry a.u.] : -3.8911E-01
        Acceptor Fragment start :          13
        Acceptor Fragment end   :          13
        Donor Fragment start :           1
        Donor Fragment end   :          12
 

     Initial potential from superposition of free atoms
     Check: negative starting charge=(component1):   -0.003070
     Check: negative starting charge=(component2):   -0.003070

     starting charge   36.99968, renormalised to   37.00000

     negative rho (up, down):  3.070E-03 3.070E-03
     Starting wfc are  208 randomized atomic wfcs

     total cpu time spent up to now is       38.8 secs

     per-process dynamical memory:    57.0 Mb

     Self-consistent Calculation

     iteration #  1     ecut=   120.00 Ry     beta=0.70
     CG style diagonalization
     ethr =  1.00E-02,  avg # of iterations =  4.1

     negative rho (up, down):  7.450E-04 7.695E-04
 
     Magnetic moment per site:
     atom:    1    charge:    1.0225    magn:    0.0318    constr:    0.0000
     atom:    2    charge:    1.0224    magn:    0.0317    constr:    0.0000
     atom:    3    charge:    1.0211    magn:    0.0312    constr:    0.0000
     atom:    4    charge:    1.0196    magn:    0.0302    constr:    0.0000
     atom:    5    charge:    1.0202    magn:    0.0301    constr:    0.0000
     atom:    6    charge:    1.0207    magn:    0.0307    constr:    0.0000
     atom:    7    charge:    0.4442    magn:    0.0011    constr:    0.0000
     atom:    8    charge:    0.4449    magn:    0.0011    constr:    0.0000
     atom:    9    charge:    0.4445    magn:    0.0012    constr:    0.0000
     atom:   10    charge:    0.4438    magn:    0.0012    constr:    0.0000
     atom:   11    charge:    0.4444    magn:    0.0013    constr:    0.0000
     atom:   12    charge:    0.4443    magn:    0.0013    constr:    0.0000
     atom:   13    charge:    3.1678    magn:    0.0004    constr:    0.0000

     total cpu time spent up to now is       48.3 secs

     The total energy is the sum of the following terms:

     one-electron contribution =    -729.36570717 Ry
     hartree contribution      =     372.46617049 Ry
     xc contribution           =     -31.49610346 Ry
     ewald contribution        =     268.46058250 Ry

     total energy              =    -103.25997583 Ry
     Harris-Foulkes estimate   =    -117.36594151 Ry
     estimated scf accuracy    <      16.76429347 Ry

     total magnetization       =     1.00 Bohr mag/cell
     absolute magnetization    =     1.00 Bohr mag/cell

     iteration #  2     ecut=   120.00 Ry     beta=0.70
     CG style diagonalization
     ethr =  1.00E-02,  avg # of iterations =  9.7

     negative rho (up, down):  3.324E-04 4.237E-04
 
     Magnetic moment per site:
     atom:    1    charge:    0.8957    magn:    0.0262    constr:    0.0000
     atom:    2    charge:    0.8965    magn:    0.0253    constr:    0.0000
     atom:    3    charge:    0.8892    magn:    0.0262    constr:    0.0000
     atom:    4    charge:    0.8849    magn:    0.0253    constr:    0.0000
     atom:    5    charge:    0.8853    magn:    0.0253    constr:    0.0000
     atom:    6    charge:    0.8883    magn:    0.0262    constr:    0.0000
     atom:    7    charge:    0.4419    magn:   -0.0010    constr:    0.0000
     atom:    8    charge:    0.4433    magn:   -0.0021    constr:    0.0000
     atom:    9    charge:    0.4348    magn:    0.0006    constr:    0.0000
     atom:   10    charge:    0.4310    magn:    0.0005    constr:    0.0000
     atom:   11    charge:    0.4314    magn:    0.0007    constr:    0.0000
     atom:   12    charge:    0.4340    magn:    0.0013    constr:    0.0000
     atom:   13    charge:    5.4236    magn:    0.0084    constr:    0.0000

     total cpu time spent up to now is       62.4 secs

     The total energy is the sum of the following terms:

     one-electron contribution =    -567.23544072 Ry
     hartree contribution      =     346.94606275 Ry
     xc contribution           =     -30.23112053 Ry
     ewald contribution        =     268.46058250 Ry

     total energy              =     -87.47472893 Ry
     Harris-Foulkes estimate   =    -140.65032522 Ry
     estimated scf accuracy    <     194.48589666 Ry

     total magnetization       =     1.00 Bohr mag/cell
     absolute magnetization    =     1.77 Bohr mag/cell

     iteration #  3     ecut=   120.00 Ry     beta=0.70
     CG style diagonalization
     ethr =  1.00E-02,  avg # of iterations =  9.6

     negative rho (up, down):  1.882E-04 2.347E-04
 
     Magnetic moment per site:
     atom:    1    charge:    0.8755    magn:    0.0223    constr:    0.0000
     atom:    2    charge:    0.8783    magn:    0.0201    constr:    0.0000
     atom:    3    charge:    0.8606    magn:    0.0337    constr:    0.0000
     atom:    4    charge:    0.8695    magn:    0.0273    constr:    0.0000
     atom:    5    charge:    0.8703    magn:    0.0260    constr:    0.0000
     atom:    6    charge:    0.8593    magn:    0.0350    constr:    0.0000
     atom:    7    charge:    0.4570    magn:    0.0000    constr:    0.0000
     atom:    8    charge:    0.4576    magn:   -0.0011    constr:    0.0000
     atom:    9    charge:    0.4525    magn:    0.0003    constr:    0.0000
     atom:   10    charge:    0.4519    magn:    0.0011    constr:    0.0000
     atom:   11    charge:    0.4516    magn:    0.0002    constr:    0.0000
     atom:   12    charge:    0.4521    magn:    0.0008    constr:    0.0000
     atom:   13    charge:    5.4010    magn:   -0.0064    constr:    0.0000

     total cpu time spent up to now is       76.6 secs

     The total energy is the sum of the following terms:

     one-electron contribution =    -687.05001132 Ry
     hartree contribution      =     343.74258751 Ry
     xc contribution           =     -29.98839795 Ry
     ewald contribution        =     268.46058250 Ry

     total energy              =    -113.55827635 Ry
     Harris-Foulkes estimate   =    -113.74010100 Ry
     estimated scf accuracy    <       0.80144119 Ry

     total magnetization       =     1.00 Bohr mag/cell
     absolute magnetization    =     2.30 Bohr mag/cell

     iteration #  4     ecut=   120.00 Ry     beta=0.70
     CG style diagonalization
     c_bands:  1 eigenvalues not converged
     ethr =  2.17E-03,  avg # of iterations =  4.4

     negative rho (up, down):  1.360E-04 1.694E-04
 
     Magnetic moment per site:
     atom:    1    charge:    0.8701    magn:    0.0166    constr:    0.0000
     atom:    2    charge:    0.8714    magn:    0.0147    constr:    0.0000
     atom:    3    charge:    0.8599    magn:    0.0275    constr:    0.0000
     atom:    4    charge:    0.8626    magn:    0.0223    constr:    0.0000
     atom:    5    charge:    0.8629    magn:    0.0219    constr:    0.0000
     atom:    6    charge:    0.8599    magn:    0.0287    constr:    0.0000
     atom:    7    charge:    0.4671    magn:    0.0003    constr:    0.0000
     atom:    8    charge:    0.4671    magn:   -0.0007    constr:    0.0000
     atom:    9    charge:    0.4652    magn:   -0.0001    constr:    0.0000
     atom:   10    charge:    0.4642    magn:    0.0005    constr:    0.0000
     atom:   11    charge:    0.4644    magn:   -0.0006    constr:    0.0000
     atom:   12    charge:    0.4651    magn:    0.0003    constr:    0.0000
     atom:   13    charge:    5.5457    magn:    0.1943    constr:    0.0000

     total cpu time spent up to now is       84.1 secs

     The total energy is the sum of the following terms:

     one-electron contribution =    -705.20996110 Ry
     hartree contribution      =     346.22314927 Ry
     xc contribution           =     -30.24108096 Ry
     ewald contribution        =     268.46058250 Ry

     total energy              =    -114.48953083 Ry
     Harris-Foulkes estimate   =    -114.60233450 Ry
     estimated scf accuracy    <       0.56380125 Ry

     total magnetization       =     1.00 Bohr mag/cell
     absolute magnetization    =     1.12 Bohr mag/cell

     iteration #  5     ecut=   120.00 Ry     beta=0.70
     CG style diagonalization
     ethr =  1.52E-03,  avg # of iterations =  3.0

     negative rho (up, down):  8.904E-05 1.087E-04
 
     Magnetic moment per site:
     atom:    1    charge:    0.8597    magn:    0.0113    constr:    0.0000
     atom:    2    charge:    0.8606    magn:    0.0096    constr:    0.0000
     atom:    3    charge:    0.8586    magn:    0.0206    constr:    0.0000
     atom:    4    charge:    0.8561    magn:    0.0165    constr:    0.0000
     atom:    5    charge:    0.8562    magn:    0.0150    constr:    0.0000
     atom:    6    charge:    0.8569    magn:    0.0223    constr:    0.0000
     atom:    7    charge:    0.4792    magn:    0.0002    constr:    0.0000
     atom:    8    charge:    0.4794    magn:   -0.0005    constr:    0.0000
     atom:    9    charge:    0.4779    magn:   -0.0006    constr:    0.0000
     atom:   10    charge:    0.4758    magn:    0.0001    constr:    0.0000
     atom:   11    charge:    0.4767    magn:   -0.0008    constr:    0.0000
     atom:   12    charge:    0.4782    magn:   -0.0003    constr:    0.0000
     atom:   13    charge:    5.6789    magn:    0.4144    constr:    0.0000

     total cpu time spent up to now is       89.7 secs

     The total energy is the sum of the following terms:

     one-electron contribution =    -704.17140253 Ry
     hartree contribution      =     348.15130879 Ry
     xc contribution           =     -30.45717774 Ry
     ewald contribution        =     268.46058250 Ry

     total energy              =    -114.44510654 Ry
     Harris-Foulkes estimate   =    -114.50638351 Ry
     estimated scf accuracy    <       0.31816034 Ry

     total magnetization       =     1.00 Bohr mag/cell
     absolute magnetization    =     1.10 Bohr mag/cell

     iteration #  6     ecut=   120.00 Ry     beta=0.70
     CG style diagonalization
     ethr =  8.60E-04,  avg # of iterations =  3.2

     negative rho (up, down):  3.178E-05 3.558E-05
 
     Magnetic moment per site:
     atom:    1    charge:    0.8482    magn:    0.0044    constr:    0.0000
     atom:    2    charge:    0.8468    magn:    0.0034    constr:    0.0000
     atom:    3    charge:    0.8503    magn:    0.0110    constr:    0.0000
     atom:    4    charge:    0.8469    magn:    0.0075    constr:    0.0000
     atom:    5    charge:    0.8471    magn:    0.0061    constr:    0.0000
     atom:    6    charge:    0.8498    magn:    0.0124    constr:    0.0000
     atom:    7    charge:    0.4943    magn:    0.0000    constr:    0.0000
     atom:    8    charge:    0.4946    magn:   -0.0003    constr:    0.0000
     atom:    9    charge:    0.4928    magn:   -0.0011    constr:    0.0000
     atom:   10    charge:    0.4900    magn:   -0.0002    constr:    0.0000
     atom:   11    charge:    0.4915    magn:   -0.0007    constr:    0.0000
     atom:   12    charge:    0.4933    magn:   -0.0009    constr:    0.0000
     atom:   13    charge:    5.8325    magn:    0.7057    constr:    0.0000

     total cpu time spent up to now is       95.5 secs

     The total energy is the sum of the following terms:

     one-electron contribution =    -703.31513314 Ry
     hartree contribution      =     350.17045510 Ry
     xc contribution           =     -30.69726118 Ry
     ewald contribution        =     268.46058250 Ry

     total energy              =    -114.41877954 Ry
     Harris-Foulkes estimate   =    -114.45788425 Ry
     estimated scf accuracy    <       0.14621638 Ry

     total magnetization       =     1.00 Bohr mag/cell
     absolute magnetization    =     1.10 Bohr mag/cell

     iteration #  7     ecut=   120.00 Ry     beta=0.70
     CG style diagonalization
     ethr =  3.95E-04,  avg # of iterations =  4.0

     negative rho (up, down):  2.702E-05 3.195E-05
 
     Magnetic moment per site:
     atom:    1    charge:    0.8467    magn:    0.0024    constr:    0.0000
     atom:    2    charge:    0.8479    magn:    0.0015    constr:    0.0000
     atom:    3    charge:    0.8487    magn:    0.0083    constr:    0.0000
     atom:    4    charge:    0.8464    magn:    0.0051    constr:    0.0000
     atom:    5    charge:    0.8484    magn:    0.0039    constr:    0.0000
     atom:    6    charge:    0.8472    magn:    0.0097    constr:    0.0000
     atom:    7    charge:    0.4929    magn:   -0.0001    constr:    0.0000
     atom:    8    charge:    0.4932    magn:   -0.0005    constr:    0.0000
     atom:    9    charge:    0.4915    magn:   -0.0010    constr:    0.0000
     atom:   10    charge:    0.4891    magn:   -0.0004    constr:    0.0000
     atom:   11    charge:    0.4904    magn:   -0.0009    constr:    0.0000
     atom:   12    charge:    0.4918    magn:   -0.0008    constr:    0.0000
     atom:   13    charge:    5.7696    magn:    0.7652    constr:    0.0000

     total cpu time spent up to now is      102.4 secs

     The total energy is the sum of the following terms:

     one-electron contribution =    -703.81352618 Ry
     hartree contribution      =     349.79404783 Ry
     xc contribution           =     -30.61920530 Ry
     ewald contribution        =     268.46058250 Ry

     total energy              =    -114.43154460 Ry
     Harris-Foulkes estimate   =    -114.44120960 Ry
     estimated scf accuracy    <       0.04518011 Ry

     total magnetization       =     1.00 Bohr mag/cell
     absolute magnetization    =     1.29 Bohr mag/cell

     iteration #  8     ecut=   120.00 Ry     beta=0.70
     CG style diagonalization
     ethr =  1.22E-04,  avg # of iterations =  3.5

     negative rho (up, down):  1.503E-05 6.275E-06
 
     Magnetic moment per site:
     atom:    1    charge:    0.8439    magn:   -0.0009    constr:    0.0000
     atom:    2    charge:    0.8438    magn:   -0.0013    constr:    0.0000
     atom:    3    charge:    0.8444    magn:    0.0024    constr:    0.0000
     atom:    4    charge:    0.8423    magn:    0.0007    constr:    0.0000
     atom:    5    charge:    0.8435    magn:   -0.0014    constr:    0.0000
     atom:    6    charge:    0.8438    magn:    0.0038    constr:    0.0000
     atom:    7    charge:    0.4977    magn:    0.0000    constr:    0.0000
     atom:    8    charge:    0.4980    magn:   -0.0002    constr:    0.0000
     atom:    9    charge:    0.4964    magn:   -0.0008    constr:    0.0000
     atom:   10    charge:    0.4948    magn:   -0.0003    constr:    0.0000
     atom:   11    charge:    0.4956    magn:   -0.0006    constr:    0.0000
     atom:   12    charge:    0.4966    magn:   -0.0008    constr:    0.0000
     atom:   13    charge:    5.8343    magn:    0.9094    constr:    0.0000

     total cpu time spent up to now is      108.5 secs

     The total energy is the sum of the following terms:

     one-electron contribution =    -702.83354073 Ry
     hartree contribution      =     350.62309518 Ry
     xc contribution           =     -30.72189119 Ry
     ewald contribution        =     268.46058250 Ry

     total energy              =    -114.43725405 Ry
     Harris-Foulkes estimate   =    -114.44556735 Ry
     estimated scf accuracy    <       0.03547919 Ry

     total magnetization       =     1.00 Bohr mag/cell
     absolute magnetization    =     1.12 Bohr mag/cell

     iteration #  9     ecut=   120.00 Ry     beta=0.70
     CG style diagonalization
     ethr =  9.59E-05,  avg # of iterations =  3.5

     negative rho (up, down):  4.324E-06 4.303E-06
 
     Magnetic moment per site:
     atom:    1    charge:    0.8437    magn:   -0.0014    constr:    0.0000
     atom:    2    charge:    0.8437    magn:   -0.0019    constr:    0.0000
     atom:    3    charge:    0.8449    magn:    0.0014    constr:    0.0000
     atom:    4    charge:    0.8422    magn:   -0.0001    constr:    0.0000
     atom:    5    charge:    0.8434    magn:   -0.0022    constr:    0.0000
     atom:    6    charge:    0.8443    magn:    0.0029    constr:    0.0000
     atom:    7    charge:    0.4976    magn:    0.0000    constr:    0.0000
     atom:    8    charge:    0.4978    magn:   -0.0002    constr:    0.0000
     atom:    9    charge:    0.4963    magn:   -0.0008    constr:    0.0000
     atom:   10    charge:    0.4947    magn:   -0.0003    constr:    0.0000
     atom:   11    charge:    0.4955    magn:   -0.0006    constr:    0.0000
     atom:   12    charge:    0.4965    magn:   -0.0008    constr:    0.0000
     atom:   13    charge:    5.8295    magn:    0.9308    constr:    0.0000

     total cpu time spent up to now is      114.7 secs

     The total energy is the sum of the following terms:

     one-electron contribution =    -703.60603902 Ry
     hartree contribution      =     350.61674924 Ry
     xc contribution           =     -30.71931376 Ry
     ewald contribution        =     268.46058250 Ry

     total energy              =    -114.44425386 Ry
     Harris-Foulkes estimate   =    -114.44470500 Ry
     estimated scf accuracy    <       0.02987717 Ry

     total magnetization       =     1.00 Bohr mag/cell
     absolute magnetization    =     1.61 Bohr mag/cell

     iteration # 10     ecut=   120.00 Ry     beta=0.70
     CG style diagonalization
     ethr =  8.07E-05,  avg # of iterations =  3.0

     negative rho (up, down):  3.780E-05 6.068E-06
 
     Magnetic moment per site:
     atom:    1    charge:    0.8437    magn:   -0.0033    constr:    0.0000
     atom:    2    charge:    0.8443    magn:   -0.0044    constr:    0.0000
     atom:    3    charge:    0.8442    magn:   -0.0027    constr:    0.0000
     atom:    4    charge:    0.8421    magn:   -0.0032    constr:    0.0000
     atom:    5    charge:    0.8437    magn:   -0.0065    constr:    0.0000
     atom:    6    charge:    0.8433    magn:   -0.0010    constr:    0.0000
     atom:    7    charge:    0.4979    magn:    0.0001    constr:    0.0000
     atom:    8    charge:    0.4980    magn:   -0.0001    constr:    0.0000
     atom:    9    charge:    0.4964    magn:   -0.0005    constr:    0.0000
     atom:   10    charge:    0.4954    magn:   -0.0002    constr:    0.0000
     atom:   11    charge:    0.4959    magn:   -0.0003    constr:    0.0000
     atom:   12    charge:    0.4965    magn:   -0.0005    constr:    0.0000
     atom:   13    charge:    5.8278    magn:    1.0239    constr:    0.0000

     total cpu time spent up to now is      120.0 secs

     The total energy is the sum of the following terms:

     one-electron contribution =    -703.44832023 Ry
     hartree contribution      =     350.73652761 Ry
     xc contribution           =     -30.73095895 Ry
     ewald contribution        =     268.46058250 Ry

     total energy              =    -114.44546033 Ry
     Harris-Foulkes estimate   =    -114.44449841 Ry
     estimated scf accuracy    <       0.01586857 Ry

     total magnetization       =     1.00 Bohr mag/cell
     absolute magnetization    =     1.56 Bohr mag/cell

     iteration # 11     ecut=   120.00 Ry     beta=0.70
     CG style diagonalization
     ethr =  4.29E-05,  avg # of iterations =  3.2

     negative rho (up, down):  3.832E-06 4.149E-06
 
     Magnetic moment per site:
     atom:    1    charge:    0.8447    magn:   -0.0064    constr:    0.0000
     atom:    2    charge:    0.8450    magn:   -0.0087    constr:    0.0000
     atom:    3    charge:    0.8439    magn:   -0.0093    constr:    0.0000
     atom:    4    charge:    0.8428    magn:   -0.0085    constr:    0.0000
     atom:    5    charge:    0.8437    magn:   -0.0139    constr:    0.0000
     atom:    6    charge:    0.8437    magn:   -0.0074    constr:    0.0000
     atom:    7    charge:    0.4976    magn:    0.0002    constr:    0.0000
     atom:    8    charge:    0.4975    magn:    0.0001    constr:    0.0000
     atom:    9    charge:    0.4959    magn:    0.0000    constr:    0.0000
     atom:   10    charge:    0.4954    magn:    0.0001    constr:    0.0000
     atom:   11    charge:    0.4955    magn:    0.0001    constr:    0.0000
     atom:   12    charge:    0.4959    magn:    0.0000    constr:    0.0000
     atom:   13    charge:    5.8091    magn:    1.1767    constr:    0.0000

     total cpu time spent up to now is      125.7 secs

     The total energy is the sum of the following terms:

     one-electron contribution =    -703.47764885 Ry
     hartree contribution      =     350.77803789 Ry
     xc contribution           =     -30.73199146 Ry
     ewald contribution        =     268.46058250 Ry

     total energy              =    -114.44461971 Ry
     Harris-Foulkes estimate   =    -114.44588280 Ry
     estimated scf accuracy    <       0.01994010 Ry

     total magnetization       =     1.00 Bohr mag/cell
     absolute magnetization    =     1.72 Bohr mag/cell

     iteration # 12     ecut=   120.00 Ry     beta=0.70
     CG style diagonalization
     ethr =  4.29E-05,  avg # of iterations =  3.4

     negative rho (up, down):  5.665E-05 8.162E-06
 
     Magnetic moment per site:
     atom:    1    charge:    0.8443    magn:   -0.0068    constr:    0.0000
     atom:    2    charge:    0.8450    magn:   -0.0097    constr:    0.0000
     atom:    3    charge:    0.8445    magn:   -0.0110    constr:    0.0000
     atom:    4    charge:    0.8428    magn:   -0.0097    constr:    0.0000
     atom:    5    charge:    0.8439    magn:   -0.0158    constr:    0.0000
     atom:    6    charge:    0.8440    magn:   -0.0089    constr:    0.0000
     atom:    7    charge:    0.4977    magn:    0.0003    constr:    0.0000
     atom:    8    charge:    0.4976    magn:    0.0002    constr:    0.0000
     atom:    9    charge:    0.4960    magn:    0.0002    constr:    0.0000
     atom:   10    charge:    0.4955    magn:    0.0002    constr:    0.0000
     atom:   11    charge:    0.4956    magn:    0.0003    constr:    0.0000
     atom:   12    charge:    0.4960    magn:    0.0001    constr:    0.0000
     atom:   13    charge:    5.8074    magn:    1.2120    constr:    0.0000

     total cpu time spent up to now is      131.5 secs

     The total energy is the sum of the following terms:

     one-electron contribution =    -703.16279528 Ry
     hartree contribution      =     350.85304424 Ry
     xc contribution           =     -30.74019628 Ry
     ewald contribution        =     268.46058250 Ry

     total energy              =    -114.44629072 Ry
     Harris-Foulkes estimate   =    -114.44623831 Ry
     estimated scf accuracy    <       0.00165773 Ry

     total magnetization       =     1.00 Bohr mag/cell
     absolute magnetization    =     1.67 Bohr mag/cell

     iteration # 13     ecut=   120.00 Ry     beta=0.70
     CG style diagonalization
     ethr =  4.48E-06,  avg # of iterations =  5.4

     negative rho (up, down):  8.491E-05 1.582E-05
 
     Magnetic moment per site:
     atom:    1    charge:    0.8443    magn:   -0.0066    constr:    0.0000
     atom:    2    charge:    0.8450    magn:   -0.0095    constr:    0.0000
     atom:    3    charge:    0.8442    magn:   -0.0107    constr:    0.0000
     atom:    4    charge:    0.8427    magn:   -0.0094    constr:    0.0000
     atom:    5    charge:    0.8439    magn:   -0.0156    constr:    0.0000
     atom:    6    charge:    0.8437    magn:   -0.0087    constr:    0.0000
     atom:    7    charge:    0.4977    magn:    0.0003    constr:    0.0000
     atom:    8    charge:    0.4976    magn:    0.0002    constr:    0.0000
     atom:    9    charge:    0.4960    magn:    0.0002    constr:    0.0000
     atom:   10    charge:    0.4955    magn:    0.0002    constr:    0.0000
     atom:   11    charge:    0.4957    magn:    0.0003    constr:    0.0000
     atom:   12    charge:    0.4960    magn:    0.0002    constr:    0.0000
     atom:   13    charge:    5.8064    magn:    1.2050    constr:    0.0000

     total cpu time spent up to now is      139.9 secs

     The total energy is the sum of the following terms:

     one-electron contribution =    -703.08783977 Ry
     hartree contribution      =     350.84751132 Ry
     xc contribution           =     -30.73820606 Ry
     ewald contribution        =     268.46058250 Ry

     total energy              =    -114.44655006 Ry
     Harris-Foulkes estimate   =    -114.44650303 Ry
     estimated scf accuracy    <       0.00096549 Ry

     total magnetization       =     1.00 Bohr mag/cell
     absolute magnetization    =     1.68 Bohr mag/cell

     iteration # 14     ecut=   120.00 Ry     beta=0.70
     CG style diagonalization
     ethr =  2.61E-06,  avg # of iterations =  3.2

     negative rho (up, down):  1.219E-05 6.557E-06
 
     Magnetic moment per site:
     atom:    1    charge:    0.8439    magn:   -0.0060    constr:    0.0000
     atom:    2    charge:    0.8445    magn:   -0.0084    constr:    0.0000
     atom:    3    charge:    0.8441    magn:   -0.0093    constr:    0.0000
     atom:    4    charge:    0.8425    magn:   -0.0083    constr:    0.0000
     atom:    5    charge:    0.8436    magn:   -0.0139    constr:    0.0000
     atom:    6    charge:    0.8436    magn:   -0.0073    constr:    0.0000
     atom:    7    charge:    0.4978    magn:    0.0002    constr:    0.0000
     atom:    8    charge:    0.4978    magn:    0.0001    constr:    0.0000
     atom:    9    charge:    0.4962    magn:    0.0001    constr:    0.0000
     atom:   10    charge:    0.4956    magn:    0.0002    constr:    0.0000
     atom:   11    charge:    0.4958    magn:    0.0002    constr:    0.0000
     atom:   12    charge:    0.4962    magn:    0.0000    constr:    0.0000
     atom:   13    charge:    5.8129    magn:    1.1721    constr:    0.0000

     total cpu time spent up to now is      145.6 secs

     The total energy is the sum of the following terms:

     one-electron contribution =    -703.03452103 Ry
     hartree contribution      =     350.81804199 Ry
     xc contribution           =     -30.73643660 Ry
     ewald contribution        =     268.46058250 Ry

     total energy              =    -114.44633655 Ry
     Harris-Foulkes estimate   =    -114.44657620 Ry
     estimated scf accuracy    <       0.00049258 Ry

     total magnetization       =     1.00 Bohr mag/cell
     absolute magnetization    =     1.65 Bohr mag/cell

     iteration # 15     ecut=   120.00 Ry     beta=0.70
     CG style diagonalization
     ethr =  1.33E-06,  avg # of iterations =  4.8

     negative rho (up, down):  6.221E-05 1.192E-05
 
     Magnetic moment per site:
     atom:    1    charge:    0.8441    magn:   -0.0056    constr:    0.0000
     atom:    2    charge:    0.8447    magn:   -0.0092    constr:    0.0000
     atom:    3    charge:    0.8424    magn:   -0.0136    constr:    0.0000
     atom:    4    charge:    0.8417    magn:   -0.0096    constr:    0.0000
     atom:    5    charge:    0.8434    magn:   -0.0176    constr:    0.0000
     atom:    6    charge:    0.8419    magn:   -0.0111    constr:    0.0000
     atom:    7    charge:    0.4981    magn:    0.0007    constr:    0.0000
     atom:    8    charge:    0.4982    magn:    0.0009    constr:    0.0000
     atom:    9    charge:    0.4966    magn:    0.0012    constr:    0.0000
     atom:   10    charge:    0.4962    magn:    0.0009    constr:    0.0000
     atom:   11    charge:    0.4963    magn:    0.0014    constr:    0.0000
     atom:   12    charge:    0.4966    magn:    0.0011    constr:    0.0000
     atom:   13    charge:    5.8091    magn:    1.2015    constr:    0.0000

     total cpu time spent up to now is      153.2 secs

     The total energy is the sum of the following terms:

     one-electron contribution =    -703.21429243 Ry
     hartree contribution      =     350.78914300 Ry
     xc contribution           =     -30.73549385 Ry
     ewald contribution        =     268.46058250 Ry

     total energy              =    -114.44667801 Ry
     Harris-Foulkes estimate   =    -114.44655823 Ry
     estimated scf accuracy    <       0.00394408 Ry

     total magnetization       =     1.00 Bohr mag/cell
     absolute magnetization    =     1.73 Bohr mag/cell

     iteration # 16     ecut=   120.00 Ry     beta=0.70
     CG style diagonalization
     ethr =  1.33E-06,  avg # of iterations =  4.9

     negative rho (up, down):  1.714E-04 5.869E-05
 
     Magnetic moment per site:
     atom:    1    charge:    0.8442    magn:   -0.0062    constr:    0.0000
     atom:    2    charge:    0.8450    magn:   -0.0096    constr:    0.0000
     atom:    3    charge:    0.8440    magn:   -0.0127    constr:    0.0000
     atom:    4    charge:    0.8426    magn:   -0.0098    constr:    0.0000
     atom:    5    charge:    0.8438    magn:   -0.0170    constr:    0.0000
     atom:    6    charge:    0.8436    magn:   -0.0104    constr:    0.0000
     atom:    7    charge:    0.4977    magn:    0.0005    constr:    0.0000
     atom:    8    charge:    0.4978    magn:    0.0005    constr:    0.0000
     atom:    9    charge:    0.4961    magn:    0.0007    constr:    0.0000
     atom:   10    charge:    0.4956    magn:    0.0005    constr:    0.0000
     atom:   11    charge:    0.4958    magn:    0.0008    constr:    0.0000
     atom:   12    charge:    0.4961    magn:    0.0006    constr:    0.0000
     atom:   13    charge:    5.8088    magn:    1.2139    constr:    0.0000

     total cpu time spent up to now is      160.9 secs

     The total energy is the sum of the following terms:

     one-electron contribution =    -703.31393803 Ry
     hartree contribution      =     350.86108155 Ry
     xc contribution           =     -30.74123295 Ry
     ewald contribution        =     268.46058250 Ry

     total energy              =    -114.44692432 Ry
     Harris-Foulkes estimate   =    -114.44730957 Ry
     estimated scf accuracy    <       0.00489444 Ry

     total magnetization       =     1.00 Bohr mag/cell
     absolute magnetization    =     1.77 Bohr mag/cell

     iteration # 17     ecut=   120.00 Ry     beta=0.70
     CG style diagonalization
     ethr =  1.33E-06,  avg # of iterations =  4.3

     negative rho (up, down):  1.040E-04 4.003E-05
 
     Magnetic moment per site:
     atom:    1    charge:    0.8441    magn:   -0.0053    constr:    0.0000
     atom:    2    charge:    0.8448    magn:   -0.0091    constr:    0.0000
     atom:    3    charge:    0.8444    magn:   -0.0139    constr:    0.0000
     atom:    4    charge:    0.8428    magn:   -0.0095    constr:    0.0000
     atom:    5    charge:    0.8437    magn:   -0.0175    constr:    0.0000
     atom:    6    charge:    0.8438    magn:   -0.0114    constr:    0.0000
     atom:    7    charge:    0.4977    magn:    0.0005    constr:    0.0000
     atom:    8    charge:    0.4977    magn:    0.0007    constr:    0.0000
     atom:    9    charge:    0.4960    magn:    0.0011    constr:    0.0000
     atom:   10    charge:    0.4955    magn:    0.0008    constr:    0.0000
     atom:   11    charge:    0.4957    magn:    0.0013    constr:    0.0000
     atom:   12    charge:    0.4960    magn:    0.0009    constr:    0.0000
     atom:   13    charge:    5.8076    magn:    1.2051    constr:    0.0000

     total cpu time spent up to now is      167.9 secs

     The total energy is the sum of the following terms:

     one-electron contribution =    -703.16312160 Ry
     hartree contribution      =     350.85771471 Ry
     xc contribution           =     -30.74017948 Ry
     ewald contribution        =     268.46058250 Ry

     total energy              =    -114.44713691 Ry
     Harris-Foulkes estimate   =    -114.44699769 Ry
     estimated scf accuracy    <       0.00218583 Ry

     total magnetization       =     1.00 Bohr mag/cell
     absolute magnetization    =     1.73 Bohr mag/cell

     iteration # 18     ecut=   120.00 Ry     beta=0.70
     CG style diagonalization
     ethr =  1.33E-06,  avg # of iterations =  3.9

     negative rho (up, down):  3.824E-07 4.049E-07
 
     Magnetic moment per site:
     atom:    1    charge:    0.8434    magn:   -0.0034    constr:    0.0000
     atom:    2    charge:    0.8441    magn:   -0.0071    constr:    0.0000
     atom:    3    charge:    0.8449    magn:   -0.0136    constr:    0.0000
     atom:    4    charge:    0.8422    magn:   -0.0081    constr:    0.0000
     atom:    5    charge:    0.8437    magn:   -0.0158    constr:    0.0000
     atom:    6    charge:    0.8450    magn:   -0.0114    constr:    0.0000
     atom:    7    charge:    0.4977    magn:    0.0005    constr:    0.0000
     atom:    8    charge:    0.4979    magn:    0.0008    constr:    0.0000
     atom:    9    charge:    0.4963    magn:    0.0012    constr:    0.0000
     atom:   10    charge:    0.4954    magn:    0.0008    constr:    0.0000
     atom:   11    charge:    0.4959    magn:    0.0014    constr:    0.0000
     atom:   12    charge:    0.4963    magn:    0.0010    constr:    0.0000
     atom:   13    charge:    5.8043    magn:    1.1665    constr:    0.0000

     total cpu time spent up to now is      174.4 secs

     The total energy is the sum of the following terms:

     one-electron contribution =    -703.11978751 Ry
     hartree contribution      =     350.83413674 Ry
     xc contribution           =     -30.73978651 Ry
     ewald contribution        =     268.46058250 Ry

     total energy              =    -114.44652622 Ry
     Harris-Foulkes estimate   =    -114.44749451 Ry
     estimated scf accuracy    <       0.00135401 Ry

     total magnetization       =     1.00 Bohr mag/cell
     absolute magnetization    =     1.71 Bohr mag/cell

     iteration # 19     ecut=   120.00 Ry     beta=0.70
     CG style diagonalization
     ethr =  1.33E-06,  avg # of iterations =  5.5

     negative rho (up, down):  4.910E-08 1.161E-07
 
     Magnetic moment per site:
     atom:    1    charge:    0.8436    magn:   -0.0034    constr:    0.0000
     atom:    2    charge:    0.8442    magn:   -0.0065    constr:    0.0000
     atom:    3    charge:    0.8448    magn:   -0.0124    constr:    0.0000
     atom:    4    charge:    0.8425    magn:   -0.0078    constr:    0.0000
     atom:    5    charge:    0.8432    magn:   -0.0142    constr:    0.0000
     atom:    6    charge:    0.8445    magn:   -0.0105    constr:    0.0000
     atom:    7    charge:    0.4977    magn:    0.0003    constr:    0.0000
     atom:    8    charge:    0.4979    magn:    0.0006    constr:    0.0000
     atom:    9    charge:    0.4964    magn:    0.0009    constr:    0.0000
     atom:   10    charge:    0.4955    magn:    0.0006    constr:    0.0000
     atom:   11    charge:    0.4959    magn:    0.0010    constr:    0.0000
     atom:   12    charge:    0.4963    magn:    0.0007    constr:    0.0000
     atom:   13    charge:    5.8065    magn:    1.1542    constr:    0.0000

     total cpu time spent up to now is      182.9 secs

     The total energy is the sum of the following terms:

     one-electron contribution =    -702.97819036 Ry
     hartree contribution      =     350.82138357 Ry
     xc contribution           =     -30.73752268 Ry
     ewald contribution        =     268.46058250 Ry

     total energy              =    -114.44846156 Ry
     Harris-Foulkes estimate   =    -114.44842265 Ry
     estimated scf accuracy    <       0.00022175 Ry

     total magnetization       =     1.00 Bohr mag/cell
     absolute magnetization    =     1.59 Bohr mag/cell

     iteration # 20     ecut=   120.00 Ry     beta=0.70
     CG style diagonalization
     ethr =  5.99E-07,  avg # of iterations =  3.8
 
     Magnetic moment per site:
     atom:    1    charge:    0.8437    magn:   -0.0027    constr:    0.0000
     atom:    2    charge:    0.8436    magn:   -0.0047    constr:    0.0000
     atom:    3    charge:    0.8446    magn:   -0.0111    constr:    0.0000
     atom:    4    charge:    0.8431    magn:   -0.0069    constr:    0.0000
     atom:    5    charge:    0.8430    magn:   -0.0115    constr:    0.0000
     atom:    6    charge:    0.8448    magn:   -0.0098    constr:    0.0000
     atom:    7    charge:    0.4976    magn:    0.0002    constr:    0.0000
     atom:    8    charge:    0.4979    magn:    0.0004    constr:    0.0000
     atom:    9    charge:    0.4963    magn:    0.0006    constr:    0.0000
     atom:   10    charge:    0.4955    magn:    0.0004    constr:    0.0000
     atom:   11    charge:    0.4959    magn:    0.0007    constr:    0.0000
     atom:   12    charge:    0.4963    magn:    0.0005    constr:    0.0000
     atom:   13    charge:    5.8080    magn:    1.1229    constr:    0.0000

     total cpu time spent up to now is      189.3 secs

     The total energy is the sum of the following terms:

     one-electron contribution =    -703.03449721 Ry
     hartree contribution      =     350.80760311 Ry
     xc contribution           =     -30.73829580 Ry
     ewald contribution        =     268.46058250 Ry

     total energy              =    -114.44826498 Ry
     Harris-Foulkes estimate   =    -114.44852310 Ry
     estimated scf accuracy    <       0.00021009 Ry

     total magnetization       =     1.00 Bohr mag/cell
     absolute magnetization    =     1.61 Bohr mag/cell

     iteration # 21     ecut=   120.00 Ry     beta=0.70
     CG style diagonalization
     ethr =  5.68E-07,  avg # of iterations =  4.4
 
     Magnetic moment per site:
     atom:    1    charge:    0.8437    magn:   -0.0032    constr:    0.0000
     atom:    2    charge:    0.8440    magn:   -0.0047    constr:    0.0000
     atom:    3    charge:    0.8447    magn:   -0.0103    constr:    0.0000
     atom:    4    charge:    0.8427    magn:   -0.0071    constr:    0.0000
     atom:    5    charge:    0.8431    magn:   -0.0106    constr:    0.0000
     atom:    6    charge:    0.8445    magn:   -0.0092    constr:    0.0000
     atom:    7    charge:    0.4975    magn:    0.0001    constr:    0.0000
     atom:    8    charge:    0.4979    magn:    0.0002    constr:    0.0000
     atom:    9    charge:    0.4963    magn:    0.0003    constr:    0.0000
     atom:   10    charge:    0.4954    magn:    0.0002    constr:    0.0000
     atom:   11    charge:    0.4959    magn:    0.0004    constr:    0.0000
     atom:   12    charge:    0.4963    magn:    0.0003    constr:    0.0000
     atom:   13    charge:    5.8074    magn:    1.1258    constr:    0.0000

     total cpu time spent up to now is      196.3 secs

     The total energy is the sum of the following terms:

     one-electron contribution =    -703.05444870 Ry
     hartree contribution      =     350.80666502 Ry
     xc contribution           =     -30.73508954 Ry
     ewald contribution        =     268.46058250 Ry

     total energy              =    -114.44888457 Ry
     Harris-Foulkes estimate   =    -114.44888470 Ry
     estimated scf accuracy    <       0.00037328 Ry

     total magnetization       =     1.00 Bohr mag/cell
     absolute magnetization    =     1.59 Bohr mag/cell

     iteration # 22     ecut=   120.00 Ry     beta=0.70
     CG style diagonalization
     ethr =  5.68E-07,  avg # of iterations =  4.3

     negative rho (up, down):  1.005E-05 7.363E-06
 
     Magnetic moment per site:
     atom:    1    charge:    0.8439    magn:   -0.0031    constr:    0.0000
     atom:    2    charge:    0.8440    magn:   -0.0033    constr:    0.0000
     atom:    3    charge:    0.8449    magn:   -0.0105    constr:    0.0000
     atom:    4    charge:    0.8431    magn:   -0.0080    constr:    0.0000
     atom:    5    charge:    0.8429    magn:   -0.0087    constr:    0.0000
     atom:    6    charge:    0.8449    magn:   -0.0103    constr:    0.0000
     atom:    7    charge:    0.4973    magn:    0.0001    constr:    0.0000
     atom:    8    charge:    0.4978    magn:    0.0001    constr:    0.0000
     atom:    9    charge:    0.4961    magn:    0.0003    constr:    0.0000
     atom:   10    charge:    0.4953    magn:    0.0002    constr:    0.0000
     atom:   11    charge:    0.4959    magn:    0.0003    constr:    0.0000
     atom:   12    charge:    0.4961    magn:    0.0003    constr:    0.0000
     atom:   13    charge:    5.8057    magn:    1.1236    constr:    0.0000

     total cpu time spent up to now is      203.2 secs

     The total energy is the sum of the following terms:

     one-electron contribution =    -703.03629111 Ry
     hartree contribution      =     350.81958442 Ry
     xc contribution           =     -30.74617101 Ry
     ewald contribution        =     268.46058250 Ry

     total energy              =    -114.44719746 Ry
     Harris-Foulkes estimate   =    -114.44891843 Ry
     estimated scf accuracy    <       0.00019218 Ry

     total magnetization       =     1.00 Bohr mag/cell
     absolute magnetization    =     1.59 Bohr mag/cell

     iteration # 23     ecut=   120.00 Ry     beta=0.70
     CG style diagonalization
     ethr =  5.19E-07,  avg # of iterations =  5.9

     negative rho (up, down):  2.300E-05 1.986E-05
 
     Magnetic moment per site:
     atom:    1    charge:    0.8439    magn:   -0.0032    constr:    0.0000
     atom:    2    charge:    0.8439    magn:   -0.0031    constr:    0.0000
     atom:    3    charge:    0.8449    magn:   -0.0105    constr:    0.0000
     atom:    4    charge:    0.8433    magn:   -0.0083    constr:    0.0000
     atom:    5    charge:    0.8429    magn:   -0.0085    constr:    0.0000
     atom:    6    charge:    0.8449    magn:   -0.0106    constr:    0.0000
     atom:    7    charge:    0.4973    magn:    0.0001    constr:    0.0000
     atom:    8    charge:    0.4978    magn:    0.0001    constr:    0.0000
     atom:    9    charge:    0.4960    magn:    0.0003    constr:    0.0000
     atom:   10    charge:    0.4953    magn:    0.0002    constr:    0.0000
     atom:   11    charge:    0.4959    magn:    0.0003    constr:    0.0000
     atom:   12    charge:    0.4961    magn:    0.0003    constr:    0.0000
     atom:   13    charge:    5.8049    magn:    1.1256    constr:    0.0000

     total cpu time spent up to now is      212.1 secs

     The total energy is the sum of the following terms:

     one-electron contribution =    -702.99681759 Ry
     hartree contribution      =     350.82016310 Ry
     xc contribution           =     -30.74820197 Ry
     ewald contribution        =     268.46058250 Ry

     total energy              =    -114.44888345 Ry
     Harris-Foulkes estimate   =    -114.44903051 Ry
     estimated scf accuracy    <       0.00036425 Ry

     total magnetization       =     1.00 Bohr mag/cell
     absolute magnetization    =     1.56 Bohr mag/cell

     iteration # 24     ecut=   120.00 Ry     beta=0.70
     CG style diagonalization
     ethr =  5.19E-07,  avg # of iterations =  3.8

     negative rho (up, down):  5.285E-06 7.929E-07
 
     Magnetic moment per site:
     atom:    1    charge:    0.8440    magn:   -0.0039    constr:    0.0000
     atom:    2    charge:    0.8442    magn:   -0.0043    constr:    0.0000
     atom:    3    charge:    0.8445    magn:   -0.0100    constr:    0.0000
     atom:    4    charge:    0.8428    magn:   -0.0086    constr:    0.0000
     atom:    5    charge:    0.8433    magn:   -0.0095    constr:    0.0000
     atom:    6    charge:    0.8444    magn:   -0.0097    constr:    0.0000
     atom:    7    charge:    0.4973    magn:    0.0001    constr:    0.0000
     atom:    8    charge:    0.4979    magn:    0.0001    constr:    0.0000
     atom:    9    charge:    0.4962    magn:    0.0003    constr:    0.0000
     atom:   10    charge:    0.4954    magn:    0.0002    constr:    0.0000
     atom:   11    charge:    0.4960    magn:    0.0002    constr:    0.0000
     atom:   12    charge:    0.4962    magn:    0.0003    constr:    0.0000
     atom:   13    charge:    5.8056    magn:    1.1332    constr:    0.0000

     total cpu time spent up to now is      218.4 secs

     The total energy is the sum of the following terms:

     one-electron contribution =    -702.98081291 Ry
     hartree contribution      =     350.81178743 Ry
     xc contribution           =     -30.73558872 Ry
     ewald contribution        =     268.46058250 Ry

     total energy              =    -114.44851875 Ry
     Harris-Foulkes estimate   =    -114.44894908 Ry
     estimated scf accuracy    <       0.00043915 Ry

     total magnetization       =     1.00 Bohr mag/cell
     absolute magnetization    =     1.55 Bohr mag/cell

     iteration # 25     ecut=   120.00 Ry     beta=0.70
     CG style diagonalization
     ethr =  5.19E-07,  avg # of iterations =  4.6

     negative rho (up, down):  1.321E-06 1.708E-07
 
     Magnetic moment per site:
     atom:    1    charge:    0.8440    magn:   -0.0039    constr:    0.0000
     atom:    2    charge:    0.8440    magn:   -0.0036    constr:    0.0000
     atom:    3    charge:    0.8445    magn:   -0.0098    constr:    0.0000
     atom:    4    charge:    0.8430    magn:   -0.0092    constr:    0.0000
     atom:    5    charge:    0.8431    magn:   -0.0085    constr:    0.0000
     atom:    6    charge:    0.8445    magn:   -0.0100    constr:    0.0000
     atom:    7    charge:    0.4972    magn:    0.0001    constr:    0.0000
     atom:    8    charge:    0.4979    magn:    0.0001    constr:    0.0000
     atom:    9    charge:    0.4962    magn:    0.0003    constr:    0.0000
     atom:   10    charge:    0.4954    magn:    0.0002    constr:    0.0000
     atom:   11    charge:    0.4960    magn:    0.0002    constr:    0.0000
     atom:   12    charge:    0.4963    magn:    0.0003    constr:    0.0000
     atom:   13    charge:    5.8051    magn:    1.1299    constr:    0.0000

     total cpu time spent up to now is      225.7 secs

     The total energy is the sum of the following terms:

     one-electron contribution =    -703.00028189 Ry
     hartree contribution      =     350.80817842 Ry
     xc contribution           =     -30.73920355 Ry
     ewald contribution        =     268.46058250 Ry

     total energy              =    -114.44885756 Ry
     Harris-Foulkes estimate   =    -114.44917053 Ry
     estimated scf accuracy    <       0.00007298 Ry

     total magnetization       =     1.00 Bohr mag/cell
     absolute magnetization    =     1.58 Bohr mag/cell

     iteration # 26     ecut=   120.00 Ry     beta=0.70
     CG style diagonalization
     ethr =  1.97E-07,  avg # of iterations =  4.6

     negative rho (up, down):  7.845E-08 1.918E-10
 
     Magnetic moment per site:
     atom:    1    charge:    0.8441    magn:   -0.0042    constr:    0.0000
     atom:    2    charge:    0.8439    magn:   -0.0042    constr:    0.0000
     atom:    3    charge:    0.8446    magn:   -0.0100    constr:    0.0000
     atom:    4    charge:    0.8431    magn:   -0.0097    constr:    0.0000
     atom:    5    charge:    0.8430    magn:   -0.0094    constr:    0.0000
     atom:    6    charge:    0.8446    magn:   -0.0101    constr:    0.0000
     atom:    7    charge:    0.4973    magn:    0.0002    constr:    0.0000
     atom:    8    charge:    0.4979    magn:    0.0002    constr:    0.0000
     atom:    9    charge:    0.4963    magn:    0.0004    constr:    0.0000
     atom:   10    charge:    0.4954    magn:    0.0003    constr:    0.0000
     atom:   11    charge:    0.4959    magn:    0.0003    constr:    0.0000
     atom:   12    charge:    0.4963    magn:    0.0004    constr:    0.0000
     atom:   13    charge:    5.8043    magn:    1.1376    constr:    0.0000

     total cpu time spent up to now is      233.0 secs

     The total energy is the sum of the following terms:

     one-electron contribution =    -703.00104012 Ry
     hartree contribution      =     350.81197356 Ry
     xc contribution           =     -30.73682371 Ry
     ewald contribution        =     268.46058250 Ry

     total energy              =    -114.44924463 Ry
     Harris-Foulkes estimate   =    -114.44926738 Ry
     estimated scf accuracy    <       0.00004773 Ry

     total magnetization       =     1.00 Bohr mag/cell
     absolute magnetization    =     1.58 Bohr mag/cell

     iteration # 27     ecut=   120.00 Ry     beta=0.70
     CG style diagonalization
     ethr =  1.29E-07,  avg # of iterations =  4.8
 
     Magnetic moment per site:
     atom:    1    charge:    0.8440    magn:   -0.0043    constr:    0.0000
     atom:    2    charge:    0.8439    magn:   -0.0041    constr:    0.0000
     atom:    3    charge:    0.8446    magn:   -0.0100    constr:    0.0000
     atom:    4    charge:    0.8432    magn:   -0.0100    constr:    0.0000
     atom:    5    charge:    0.8430    magn:   -0.0093    constr:    0.0000
     atom:    6    charge:    0.8446    magn:   -0.0102    constr:    0.0000
     atom:    7    charge:    0.4973    magn:    0.0002    constr:    0.0000
     atom:    8    charge:    0.4978    magn:    0.0002    constr:    0.0000
     atom:    9    charge:    0.4962    magn:    0.0004    constr:    0.0000
     atom:   10    charge:    0.4954    magn:    0.0004    constr:    0.0000
     atom:   11    charge:    0.4959    magn:    0.0003    constr:    0.0000
     atom:   12    charge:    0.4962    magn:    0.0004    constr:    0.0000
     atom:   13    charge:    5.8038    magn:    1.1383    constr:    0.0000

     total cpu time spent up to now is      240.6 secs

     The total energy is the sum of the following terms:

     one-electron contribution =    -702.98483305 Ry
     hartree contribution      =     350.80944444 Ry
     xc contribution           =     -30.73800473 Ry
     ewald contribution        =     268.46058250 Ry

     total energy              =    -114.44921084 Ry
     Harris-Foulkes estimate   =    -114.44926695 Ry
     estimated scf accuracy    <       0.00002103 Ry

     total magnetization       =     1.00 Bohr mag/cell
     absolute magnetization    =     1.58 Bohr mag/cell

     iteration # 28     ecut=   120.00 Ry     beta=0.70
     CG style diagonalization
     ethr =  5.68E-08,  avg # of iterations =  4.4
 
     Magnetic moment per site:
     atom:    1    charge:    0.8440    magn:   -0.0043    constr:    0.0000
     atom:    2    charge:    0.8439    magn:   -0.0042    constr:    0.0000
     atom:    3    charge:    0.8447    magn:   -0.0100    constr:    0.0000
     atom:    4    charge:    0.8431    magn:   -0.0101    constr:    0.0000
     atom:    5    charge:    0.8431    magn:   -0.0096    constr:    0.0000
     atom:    6    charge:    0.8447    magn:   -0.0102    constr:    0.0000
     atom:    7    charge:    0.4973    magn:    0.0002    constr:    0.0000
     atom:    8    charge:    0.4978    magn:    0.0002    constr:    0.0000
     atom:    9    charge:    0.4962    magn:    0.0004    constr:    0.0000
     atom:   10    charge:    0.4954    magn:    0.0004    constr:    0.0000
     atom:   11    charge:    0.4959    magn:    0.0004    constr:    0.0000
     atom:   12    charge:    0.4962    magn:    0.0004    constr:    0.0000
     atom:   13    charge:    5.8034    magn:    1.1393    constr:    0.0000

     total cpu time spent up to now is      247.6 secs

     The total energy is the sum of the following terms:

     one-electron contribution =    -702.97909785 Ry
     hartree contribution      =     350.80765501 Ry
     xc contribution           =     -30.73774555 Ry
     ewald contribution        =     268.46058250 Ry

     total energy              =    -114.44928648 Ry
     Harris-Foulkes estimate   =    -114.44929287 Ry
     estimated scf accuracy    <       0.00000225 Ry

     total magnetization       =     1.00 Bohr mag/cell
     absolute magnetization    =     1.58 Bohr mag/cell

     iteration # 29     ecut=   120.00 Ry     beta=0.70
     CG style diagonalization
     ethr =  6.09E-09,  avg # of iterations =  5.7
 
     Magnetic moment per site:
     atom:    1    charge:    0.8440    magn:   -0.0043    constr:    0.0000
     atom:    2    charge:    0.8439    magn:   -0.0041    constr:    0.0000
     atom:    3    charge:    0.8447    magn:   -0.0100    constr:    0.0000
     atom:    4    charge:    0.8432    magn:   -0.0101    constr:    0.0000
     atom:    5    charge:    0.8430    magn:   -0.0095    constr:    0.0000
     atom:    6    charge:    0.8447    magn:   -0.0102    constr:    0.0000
     atom:    7    charge:    0.4973    magn:    0.0002    constr:    0.0000
     atom:    8    charge:    0.4978    magn:    0.0002    constr:    0.0000
     atom:    9    charge:    0.4962    magn:    0.0004    constr:    0.0000
     atom:   10    charge:    0.4954    magn:    0.0004    constr:    0.0000
     atom:   11    charge:    0.4959    magn:    0.0004    constr:    0.0000
     atom:   12    charge:    0.4962    magn:    0.0004    constr:    0.0000
     atom:   13    charge:    5.8034    magn:    1.1384    constr:    0.0000

     total cpu time spent up to now is      256.3 secs

     The total energy is the sum of the following terms:

     one-electron contribution =    -702.97602447 Ry
     hartree contribution      =     350.80648536 Ry
     xc contribution           =     -30.73830144 Ry
     ewald contribution        =     268.46058250 Ry

     total energy              =    -114.44928732 Ry
     Harris-Foulkes estimate   =    -114.44929593 Ry
     estimated scf accuracy    <       0.00000287 Ry

     total magnetization       =     1.00 Bohr mag/cell
     absolute magnetization    =     1.58 Bohr mag/cell

     iteration # 30     ecut=   120.00 Ry     beta=0.70
     CG style diagonalization
     ethr =  6.09E-09,  avg # of iterations =  3.9
 
     Magnetic moment per site:
     atom:    1    charge:    0.8440    magn:   -0.0042    constr:    0.0000
     atom:    2    charge:    0.8439    magn:   -0.0042    constr:    0.0000
     atom:    3    charge:    0.8447    magn:   -0.0101    constr:    0.0000
     atom:    4    charge:    0.8431    magn:   -0.0099    constr:    0.0000
     atom:    5    charge:    0.8431    magn:   -0.0097    constr:    0.0000
     atom:    6    charge:    0.8447    magn:   -0.0102    constr:    0.0000
     atom:    7    charge:    0.4973    magn:    0.0002    constr:    0.0000
     atom:    8    charge:    0.4978    magn:    0.0002    constr:    0.0000
     atom:    9    charge:    0.4962    magn:    0.0004    constr:    0.0000
     atom:   10    charge:    0.4954    magn:    0.0004    constr:    0.0000
     atom:   11    charge:    0.4959    magn:    0.0004    constr:    0.0000
     atom:   12    charge:    0.4962    magn:    0.0004    constr:    0.0000
     atom:   13    charge:    5.8034    magn:    1.1382    constr:    0.0000

     total cpu time spent up to now is      262.6 secs

     The total energy is the sum of the following terms:

     one-electron contribution =    -702.97681031 Ry
     hartree contribution      =     350.80649261 Ry
     xc contribution           =     -30.73803048 Ry
     ewald contribution        =     268.46058250 Ry

     total energy              =    -114.44929736 Ry
     Harris-Foulkes estimate   =    -114.44929826 Ry
     estimated scf accuracy    <       0.00000034 Ry

     total magnetization       =     1.00 Bohr mag/cell
     absolute magnetization    =     1.58 Bohr mag/cell

     iteration # 31     ecut=   120.00 Ry     beta=0.70
     CG style diagonalization
     ethr =  9.09E-10,  avg # of iterations =  4.7
 
     Magnetic moment per site:
     atom:    1    charge:    0.8440    magn:   -0.0042    constr:    0.0000
     atom:    2    charge:    0.8439    magn:   -0.0041    constr:    0.0000
     atom:    3    charge:    0.8447    magn:   -0.0101    constr:    0.0000
     atom:    4    charge:    0.8431    magn:   -0.0098    constr:    0.0000
     atom:    5    charge:    0.8431    magn:   -0.0097    constr:    0.0000
     atom:    6    charge:    0.8447    magn:   -0.0102    constr:    0.0000
     atom:    7    charge:    0.4973    magn:    0.0002    constr:    0.0000
     atom:    8    charge:    0.4978    magn:    0.0002    constr:    0.0000
     atom:    9    charge:    0.4962    magn:    0.0004    constr:    0.0000
     atom:   10    charge:    0.4954    magn:    0.0004    constr:    0.0000
     atom:   11    charge:    0.4959    magn:    0.0004    constr:    0.0000
     atom:   12    charge:    0.4962    magn:    0.0004    constr:    0.0000
     atom:   13    charge:    5.8034    magn:    1.1382    constr:    0.0000

     total cpu time spent up to now is      270.0 secs

     The total energy is the sum of the following terms:

     one-electron contribution =    -702.97762804 Ry
     hartree contribution      =     350.80585074 Ry
     xc contribution           =     -30.73825553 Ry
     ewald contribution        =     268.46058250 Ry

     total energy              =    -114.44929676 Ry
     Harris-Foulkes estimate   =    -114.44929839 Ry
     estimated scf accuracy    <       0.00000027 Ry

     total magnetization       =     1.00 Bohr mag/cell
     absolute magnetization    =     1.58 Bohr mag/cell

     iteration # 32     ecut=   120.00 Ry     beta=0.70
     CG style diagonalization
     ethr =  7.17E-10,  avg # of iterations =  5.0
 
     Magnetic moment per site:
     atom:    1    charge:    0.8440    magn:   -0.0041    constr:    0.0000
     atom:    2    charge:    0.8439    magn:   -0.0041    constr:    0.0000
     atom:    3    charge:    0.8447    magn:   -0.0102    constr:    0.0000
     atom:    4    charge:    0.8431    magn:   -0.0098    constr:    0.0000
     atom:    5    charge:    0.8431    magn:   -0.0097    constr:    0.0000
     atom:    6    charge:    0.8447    magn:   -0.0102    constr:    0.0000
     atom:    7    charge:    0.4973    magn:    0.0002    constr:    0.0000
     atom:    8    charge:    0.4978    magn:    0.0002    constr:    0.0000
     atom:    9    charge:    0.4962    magn:    0.0004    constr:    0.0000
     atom:   10    charge:    0.4954    magn:    0.0004    constr:    0.0000
     atom:   11    charge:    0.4959    magn:    0.0004    constr:    0.0000
     atom:   12    charge:    0.4962    magn:    0.0004    constr:    0.0000
     atom:   13    charge:    5.8034    magn:    1.1382    constr:    0.0000

     total cpu time spent up to now is      277.8 secs

     The total energy is the sum of the following terms:

     one-electron contribution =    -702.97747626 Ry
     hartree contribution      =     350.80593055 Ry
     xc contribution           =     -30.73828598 Ry
     ewald contribution        =     268.46058250 Ry

     total energy              =    -114.44929884 Ry
     Harris-Foulkes estimate   =    -114.44929886 Ry
     estimated scf accuracy    <       0.00000013 Ry

     total magnetization       =     1.00 Bohr mag/cell
     absolute magnetization    =     1.58 Bohr mag/cell

     iteration # 33     ecut=   120.00 Ry     beta=0.70
     CG style diagonalization
     ethr =  3.49E-10,  avg # of iterations =  5.5
 
     Magnetic moment per site:
     atom:    1    charge:    0.8440    magn:   -0.0041    constr:    0.0000
     atom:    2    charge:    0.8440    magn:   -0.0041    constr:    0.0000
     atom:    3    charge:    0.8447    magn:   -0.0102    constr:    0.0000
     atom:    4    charge:    0.8431    magn:   -0.0097    constr:    0.0000
     atom:    5    charge:    0.8431    magn:   -0.0098    constr:    0.0000
     atom:    6    charge:    0.8447    magn:   -0.0102    constr:    0.0000
     atom:    7    charge:    0.4973    magn:    0.0002    constr:    0.0000
     atom:    8    charge:    0.4978    magn:    0.0002    constr:    0.0000
     atom:    9    charge:    0.4962    magn:    0.0004    constr:    0.0000
     atom:   10    charge:    0.4954    magn:    0.0004    constr:    0.0000
     atom:   11    charge:    0.4959    magn:    0.0004    constr:    0.0000
     atom:   12    charge:    0.4962    magn:    0.0004    constr:    0.0000
     atom:   13    charge:    5.8034    magn:    1.1381    constr:    0.0000

     total cpu time spent up to now is      286.3 secs

     The total energy is the sum of the following terms:

     one-electron contribution =    -702.97762155 Ry
     hartree contribution      =     350.80595072 Ry
     xc contribution           =     -30.73824521 Ry
     ewald contribution        =     268.46058250 Ry

     total energy              =    -114.44929903 Ry
     Harris-Foulkes estimate   =    -114.44929902 Ry
     estimated scf accuracy    <       0.00000008 Ry

     total magnetization       =     1.00 Bohr mag/cell
     absolute magnetization    =     1.58 Bohr mag/cell

     iteration # 34     ecut=   120.00 Ry     beta=0.70
     CG style diagonalization
     ethr =  2.27E-10,  avg # of iterations =  3.7
 
     Magnetic moment per site:
     atom:    1    charge:    0.8440    magn:   -0.0041    constr:    0.0000
     atom:    2    charge:    0.8440    magn:   -0.0041    constr:    0.0000
     atom:    3    charge:    0.8447    magn:   -0.0103    constr:    0.0000
     atom:    4    charge:    0.8431    magn:   -0.0097    constr:    0.0000
     atom:    5    charge:    0.8431    magn:   -0.0098    constr:    0.0000
     atom:    6    charge:    0.8447    magn:   -0.0102    constr:    0.0000
     atom:    7    charge:    0.4973    magn:    0.0002    constr:    0.0000
     atom:    8    charge:    0.4978    magn:    0.0002    constr:    0.0000
     atom:    9    charge:    0.4962    magn:    0.0004    constr:    0.0000
     atom:   10    charge:    0.4954    magn:    0.0004    constr:    0.0000
     atom:   11    charge:    0.4959    magn:    0.0004    constr:    0.0000
     atom:   12    charge:    0.4962    magn:    0.0004    constr:    0.0000
     atom:   13    charge:    5.8034    magn:    1.1383    constr:    0.0000

     total cpu time spent up to now is      292.4 secs

     The total energy is the sum of the following terms:

     one-electron contribution =    -702.97803058 Ry
     hartree contribution      =     350.80607155 Ry
     xc contribution           =     -30.73824620 Ry
     ewald contribution        =     268.46058250 Ry

     total energy              =    -114.44929902 Ry
     Harris-Foulkes estimate   =    -114.44929911 Ry
     estimated scf accuracy    <       0.00000005 Ry

     total magnetization       =     1.00 Bohr mag/cell
     absolute magnetization    =     1.58 Bohr mag/cell

     iteration # 35     ecut=   120.00 Ry     beta=0.70
     CG style diagonalization
     ethr =  1.30E-10,  avg # of iterations =  4.8
 
     Magnetic moment per site:
     atom:    1    charge:    0.8440    magn:   -0.0041    constr:    0.0000
     atom:    2    charge:    0.8440    magn:   -0.0041    constr:    0.0000
     atom:    3    charge:    0.8447    magn:   -0.0103    constr:    0.0000
     atom:    4    charge:    0.8431    magn:   -0.0096    constr:    0.0000
     atom:    5    charge:    0.8431    magn:   -0.0098    constr:    0.0000
     atom:    6    charge:    0.8447    magn:   -0.0102    constr:    0.0000
     atom:    7    charge:    0.4973    magn:    0.0002    constr:    0.0000
     atom:    8    charge:    0.4978    magn:    0.0002    constr:    0.0000
     atom:    9    charge:    0.4962    magn:    0.0004    constr:    0.0000
     atom:   10    charge:    0.4954    magn:    0.0004    constr:    0.0000
     atom:   11    charge:    0.4959    magn:    0.0004    constr:    0.0000
     atom:   12    charge:    0.4962    magn:    0.0004    constr:    0.0000
     atom:   13    charge:    5.8034    magn:    1.1383    constr:    0.0000

     total cpu time spent up to now is      299.9 secs

     The total energy is the sum of the following terms:

     one-electron contribution =    -702.97727767 Ry
     hartree contribution      =     350.80599849 Ry
     xc contribution           =     -30.73823980 Ry
     ewald contribution        =     268.46058250 Ry

     total energy              =    -114.44929912 Ry
     Harris-Foulkes estimate   =    -114.44929925 Ry
     estimated scf accuracy    <       0.00000003 Ry

     total magnetization       =     1.00 Bohr mag/cell
     absolute magnetization    =     1.58 Bohr mag/cell

     iteration # 36     ecut=   120.00 Ry     beta=0.70
     CG style diagonalization
     ethr =  7.66E-11,  avg # of iterations =  4.5
 
     Magnetic moment per site:
     atom:    1    charge:    0.8440    magn:   -0.0041    constr:    0.0000
     atom:    2    charge:    0.8440    magn:   -0.0041    constr:    0.0000
     atom:    3    charge:    0.8447    magn:   -0.0103    constr:    0.0000
     atom:    4    charge:    0.8431    magn:   -0.0096    constr:    0.0000
     atom:    5    charge:    0.8431    magn:   -0.0098    constr:    0.0000
     atom:    6    charge:    0.8447    magn:   -0.0102    constr:    0.0000
     atom:    7    charge:    0.4973    magn:    0.0002    constr:    0.0000
     atom:    8    charge:    0.4978    magn:    0.0002    constr:    0.0000
     atom:    9    charge:    0.4962    magn:    0.0004    constr:    0.0000
     atom:   10    charge:    0.4954    magn:    0.0004    constr:    0.0000
     atom:   11    charge:    0.4959    magn:    0.0004    constr:    0.0000
     atom:   12    charge:    0.4962    magn:    0.0004    constr:    0.0000
     atom:   13    charge:    5.8034    magn:    1.1383    constr:    0.0000

     total cpu time spent up to now is      307.1 secs

     The total energy is the sum of the following terms:

     one-electron contribution =    -702.97773376 Ry
     hartree contribution      =     350.80599373 Ry
     xc contribution           =     -30.73823668 Ry
     ewald contribution        =     268.46058250 Ry

     total energy              =    -114.44929925 Ry
     Harris-Foulkes estimate   =    -114.44929936 Ry
     estimated scf accuracy    <       0.00000001 Ry

     total magnetization       =     1.00 Bohr mag/cell
     absolute magnetization    =     1.58 Bohr mag/cell

     iteration # 37     ecut=   120.00 Ry     beta=0.70
     CG style diagonalization
     ethr =  3.00E-11,  avg # of iterations =  5.1
 
     Magnetic moment per site:
     atom:    1    charge:    0.8440    magn:   -0.0041    constr:    0.0000
     atom:    2    charge:    0.8440    magn:   -0.0041    constr:    0.0000
     atom:    3    charge:    0.8447    magn:   -0.0103    constr:    0.0000
     atom:    4    charge:    0.8431    magn:   -0.0097    constr:    0.0000
     atom:    5    charge:    0.8431    magn:   -0.0097    constr:    0.0000
     atom:    6    charge:    0.8447    magn:   -0.0102    constr:    0.0000
     atom:    7    charge:    0.4973    magn:    0.0002    constr:    0.0000
     atom:    8    charge:    0.4978    magn:    0.0002    constr:    0.0000
     atom:    9    charge:    0.4962    magn:    0.0004    constr:    0.0000
     atom:   10    charge:    0.4954    magn:    0.0004    constr:    0.0000
     atom:   11    charge:    0.4959    magn:    0.0004    constr:    0.0000
     atom:   12    charge:    0.4962    magn:    0.0004    constr:    0.0000
     atom:   13    charge:    5.8034    magn:    1.1382    constr:    0.0000

     total cpu time spent up to now is      315.0 secs

     The total energy is the sum of the following terms:

     one-electron contribution =    -702.97739747 Ry
     hartree contribution      =     350.80592335 Ry
     xc contribution           =     -30.73823111 Ry
     ewald contribution        =     268.46058250 Ry

     total energy              =    -114.44929931 Ry
     Harris-Foulkes estimate   =    -114.44929943 Ry
     estimated scf accuracy    <          8.7E-09 Ry

     total magnetization       =     1.00 Bohr mag/cell
     absolute magnetization    =     1.58 Bohr mag/cell

     iteration # 38     ecut=   120.00 Ry     beta=0.70
     CG style diagonalization
     ethr =  2.34E-11,  avg # of iterations =  5.6
 
     Magnetic moment per site:
     atom:    1    charge:    0.8440    magn:   -0.0041    constr:    0.0000
     atom:    2    charge:    0.8440    magn:   -0.0041    constr:    0.0000
     atom:    3    charge:    0.8447    magn:   -0.0103    constr:    0.0000
     atom:    4    charge:    0.8431    magn:   -0.0097    constr:    0.0000
     atom:    5    charge:    0.8431    magn:   -0.0097    constr:    0.0000
     atom:    6    charge:    0.8447    magn:   -0.0102    constr:    0.0000
     atom:    7    charge:    0.4973    magn:    0.0002    constr:    0.0000
     atom:    8    charge:    0.4978    magn:    0.0002    constr:    0.0000
     atom:    9    charge:    0.4962    magn:    0.0004    constr:    0.0000
     atom:   10    charge:    0.4954    magn:    0.0004    constr:    0.0000
     atom:   11    charge:    0.4959    magn:    0.0004    constr:    0.0000
     atom:   12    charge:    0.4962    magn:    0.0004    constr:    0.0000
     atom:   13    charge:    5.8034    magn:    1.1382    constr:    0.0000

     total cpu time spent up to now is      323.6 secs

     The total energy is the sum of the following terms:

     one-electron contribution =    -702.97761660 Ry
     hartree contribution      =     350.80592095 Ry
     xc contribution           =     -30.73822867 Ry
     ewald contribution        =     268.46058250 Ry

     total energy              =    -114.44929941 Ry
     Harris-Foulkes estimate   =    -114.44929946 Ry
     estimated scf accuracy    <          2.9E-09 Ry

     total magnetization       =     1.00 Bohr mag/cell
     absolute magnetization    =     1.58 Bohr mag/cell

     iteration # 39     ecut=   120.00 Ry     beta=0.70
     CG style diagonalization
     ethr =  7.93E-12,  avg # of iterations =  5.1
 
     Magnetic moment per site:
     atom:    1    charge:    0.8440    magn:   -0.0041    constr:    0.0000
     atom:    2    charge:    0.8440    magn:   -0.0041    constr:    0.0000
     atom:    3    charge:    0.8447    magn:   -0.0102    constr:    0.0000
     atom:    4    charge:    0.8431    magn:   -0.0097    constr:    0.0000
     atom:    5    charge:    0.8431    magn:   -0.0097    constr:    0.0000
     atom:    6    charge:    0.8447    magn:   -0.0102    constr:    0.0000
     atom:    7    charge:    0.4973    magn:    0.0002    constr:    0.0000
[...]

     total magnetization       =     1.00 Bohr mag/cell
     absolute magnetization    =     1.57 Bohr mag/cell

     iteration #  9     ecut=   120.00 Ry     beta=0.70
     CG style diagonalization
     ethr =  1.30E-13,  avg # of iterations =  6.3
 
     Magnetic moment per site:
     atom:    1    charge:    0.8440    magn:   -0.0040    constr:    0.0000
     atom:    2    charge:    0.8439    magn:   -0.0040    constr:    0.0000
     atom:    3    charge:    0.8446    magn:   -0.0101    constr:    0.0000
     atom:    4    charge:    0.8431    magn:   -0.0096    constr:    0.0000
     atom:    5    charge:    0.8431    magn:   -0.0096    constr:    0.0000
     atom:    6    charge:    0.8447    magn:   -0.0101    constr:    0.0000
     atom:    7    charge:    0.4973    magn:    0.0002    constr:    0.0000
     atom:    8    charge:    0.4978    magn:    0.0002    constr:    0.0000
     atom:    9    charge:    0.4962    magn:    0.0004    constr:    0.0000
     atom:   10    charge:    0.4954    magn:    0.0004    constr:    0.0000
     atom:   11    charge:    0.4959    magn:    0.0004    constr:    0.0000
     atom:   12    charge:    0.4962    magn:    0.0004    constr:    0.0000
     atom:   13    charge:    5.8059    magn:    1.1339    constr:    0.0000

     total cpu time spent up to now is      633.6 secs

     The total energy is the sum of the following terms:

     one-electron contribution =    -702.94157961 Ry
     hartree contribution      =     350.80172685 Ry
     xc contribution           =     -30.73868995 Ry
     ewald contribution        =     268.46058250 Ry

     total energy              =    -114.41790333 Ry
     Harris-Foulkes estimate   =    -114.41790332 Ry
     estimated scf accuracy    <          4.0E-11 Ry

     total magnetization       =     1.00 Bohr mag/cell
     absolute magnetization    =     1.57 Bohr mag/cell

     iteration # 10     ecut=   120.00 Ry     beta=0.70
     CG style diagonalization
     ethr =  1.08E-13,  avg # of iterations =  4.5
 
     Magnetic moment per site:
     atom:    1    charge:    0.8440    magn:   -0.0040    constr:    0.0000
     atom:    2    charge:    0.8439    magn:   -0.0040    constr:    0.0000
     atom:    3    charge:    0.8447    magn:   -0.0101    constr:    0.0000
     atom:    4    charge:    0.8431    magn:   -0.0096    constr:    0.0000
     atom:    5    charge:    0.8431    magn:   -0.0096    constr:    0.0000
     atom:    6    charge:    0.8447    magn:   -0.0101    constr:    0.0000
     atom:    7    charge:    0.4973    magn:    0.0002    constr:    0.0000
     atom:    8    charge:    0.4978    magn:    0.0002    constr:    0.0000
     atom:    9    charge:    0.4962    magn:    0.0004    constr:    0.0000
     atom:   10    charge:    0.4954    magn:    0.0004    constr:    0.0000
     atom:   11    charge:    0.4959    magn:    0.0004    constr:    0.0000
     atom:   12    charge:    0.4962    magn:    0.0004    constr:    0.0000
     atom:   13    charge:    5.8059    magn:    1.1339    constr:    0.0000

     total cpu time spent up to now is      640.7 secs

     The total energy is the sum of the following terms:

     one-electron contribution =    -702.94152472 Ry
     hartree contribution      =     350.80173604 Ry
     xc contribution           =     -30.73869096 Ry
     ewald contribution        =     268.46058250 Ry

     total energy              =    -114.41790333 Ry
     Harris-Foulkes estimate   =    -114.41790333 Ry
     estimated scf accuracy    <          4.6E-12 Ry

     total magnetization       =     1.00 Bohr mag/cell
     absolute magnetization    =     1.57 Bohr mag/cell

     iteration # 11     ecut=   120.00 Ry     beta=0.70
     CG style diagonalization
     ethr =  1.00E-13,  avg # of iterations =  3.9
 
     Magnetic moment per site:
     atom:    1    charge:    0.8440    magn:   -0.0040    constr:    0.0000
     atom:    2    charge:    0.8439    magn:   -0.0040    constr:    0.0000
     atom:    3    charge:    0.8446    magn:   -0.0101    constr:    0.0000
     atom:    4    charge:    0.8431    magn:   -0.0096    constr:    0.0000
     atom:    5    charge:    0.8431    magn:   -0.0096    constr:    0.0000
     atom:    6    charge:    0.8447    magn:   -0.0101    constr:    0.0000
     atom:    7    charge:    0.4973    magn:    0.0002    constr:    0.0000
     atom:    8    charge:    0.4978    magn:    0.0002    constr:    0.0000
     atom:    9    charge:    0.4962    magn:    0.0004    constr:    0.0000
     atom:   10    charge:    0.4954    magn:    0.0004    constr:    0.0000
     atom:   11    charge:    0.4959    magn:    0.0004    constr:    0.0000
     atom:   12    charge:    0.4962    magn:    0.0004    constr:    0.0000
     atom:   13    charge:    5.8059    magn:    1.1339    constr:    0.0000

     total cpu time spent up to now is      647.1 secs

     The total energy is the sum of the following terms:

     one-electron contribution =    -702.94150367 Ry
     hartree contribution      =     350.80172742 Ry
     xc contribution           =     -30.73869019 Ry
     ewald contribution        =     268.46058250 Ry

     total energy              =    -114.41790333 Ry
     Harris-Foulkes estimate   =    -114.41790333 Ry
     estimated scf accuracy    <          9.9E-12 Ry

     total magnetization       =     1.00 Bohr mag/cell
     absolute magnetization    =     1.57 Bohr mag/cell

     iteration # 12     ecut=   120.00 Ry     beta=0.70
     CG style diagonalization
     ethr =  1.00E-13,  avg # of iterations =  3.5
 
     Magnetic moment per site:
     atom:    1    charge:    0.8440    magn:   -0.0040    constr:    0.0000
     atom:    2    charge:    0.8439    magn:   -0.0040    constr:    0.0000
     atom:    3    charge:    0.8446    magn:   -0.0101    constr:    0.0000
     atom:    4    charge:    0.8431    magn:   -0.0096    constr:    0.0000
     atom:    5    charge:    0.8431    magn:   -0.0096    constr:    0.0000
     atom:    6    charge:    0.8447    magn:   -0.0101    constr:    0.0000
     atom:    7    charge:    0.4973    magn:    0.0002    constr:    0.0000
     atom:    8    charge:    0.4978    magn:    0.0002    constr:    0.0000
     atom:    9    charge:    0.4962    magn:    0.0004    constr:    0.0000
     atom:   10    charge:    0.4954    magn:    0.0004    constr:    0.0000
     atom:   11    charge:    0.4959    magn:    0.0004    constr:    0.0000
     atom:   12    charge:    0.4962    magn:    0.0004    constr:    0.0000
     atom:   13    charge:    5.8059    magn:    1.1339    constr:    0.0000

     total cpu time spent up to now is      653.0 secs

     The total energy is the sum of the following terms:

     one-electron contribution =    -702.94151677 Ry
     hartree contribution      =     350.80172081 Ry
     xc contribution           =     -30.73868961 Ry
     ewald contribution        =     268.46058250 Ry

     total energy              =    -114.41790333 Ry
     Harris-Foulkes estimate   =    -114.41790333 Ry
     estimated scf accuracy    <          2.2E-12 Ry

     total magnetization       =     1.00 Bohr mag/cell
     absolute magnetization    =     1.57 Bohr mag/cell

     iteration # 13     ecut=   120.00 Ry     beta=0.70
     CG style diagonalization
     ethr =  1.00E-13,  avg # of iterations =  3.5
 
     Magnetic moment per site:
     atom:    1    charge:    0.8440    magn:   -0.0040    constr:    0.0000
     atom:    2    charge:    0.8439    magn:   -0.0040    constr:    0.0000
     atom:    3    charge:    0.8446    magn:   -0.0101    constr:    0.0000
     atom:    4    charge:    0.8431    magn:   -0.0096    constr:    0.0000
     atom:    5    charge:    0.8431    magn:   -0.0096    constr:    0.0000
     atom:    6    charge:    0.8447    magn:   -0.0101    constr:    0.0000
     atom:    7    charge:    0.4973    magn:    0.0002    constr:    0.0000
     atom:    8    charge:    0.4978    magn:    0.0002    constr:    0.0000
     atom:    9    charge:    0.4962    magn:    0.0004    constr:    0.0000
     atom:   10    charge:    0.4954    magn:    0.0004    constr:    0.0000
     atom:   11    charge:    0.4959    magn:    0.0004    constr:    0.0000
     atom:   12    charge:    0.4962    magn:    0.0004    constr:    0.0000
     atom:   13    charge:    5.8059    magn:    1.1339    constr:    0.0000

     total cpu time spent up to now is      658.9 secs

     The total energy is the sum of the following terms:

     one-electron contribution =    -702.94152415 Ry
     hartree contribution      =     350.80171915 Ry
     xc contribution           =     -30.73868979 Ry
     ewald contribution        =     268.46058250 Ry

     total energy              =    -114.41790333 Ry
     Harris-Foulkes estimate   =    -114.41790333 Ry
     estimated scf accuracy    <          1.7E-12 Ry

     total magnetization       =     1.00 Bohr mag/cell
     absolute magnetization    =     1.57 Bohr mag/cell

     iteration # 14     ecut=   120.00 Ry     beta=0.70
     CG style diagonalization
     ethr =  1.00E-13,  avg # of iterations =  3.7
 
     Magnetic moment per site:
     atom:    1    charge:    0.8440    magn:   -0.0040    constr:    0.0000
     atom:    2    charge:    0.8439    magn:   -0.0040    constr:    0.0000
     atom:    3    charge:    0.8446    magn:   -0.0101    constr:    0.0000
     atom:    4    charge:    0.8431    magn:   -0.0096    constr:    0.0000
     atom:    5    charge:    0.8431    magn:   -0.0096    constr:    0.0000
     atom:    6    charge:    0.8447    magn:   -0.0101    constr:    0.0000
     atom:    7    charge:    0.4973    magn:    0.0002    constr:    0.0000
     atom:    8    charge:    0.4978    magn:    0.0002    constr:    0.0000
     atom:    9    charge:    0.4962    magn:    0.0004    constr:    0.0000
     atom:   10    charge:    0.4954    magn:    0.0004    constr:    0.0000
     atom:   11    charge:    0.4959    magn:    0.0004    constr:    0.0000
     atom:   12    charge:    0.4962    magn:    0.0004    constr:    0.0000
     atom:   13    charge:    5.8059    magn:    1.1339    constr:    0.0000

     total cpu time spent up to now is      665.0 secs

     The total energy is the sum of the following terms:

     one-electron contribution =    -702.94152745 Ry
     hartree contribution      =     350.80171796 Ry
     xc contribution           =     -30.73868978 Ry
     ewald contribution        =     268.46058250 Ry

     total energy              =    -114.41790333 Ry
     Harris-Foulkes estimate   =    -114.41790333 Ry
     estimated scf accuracy    <          3.1E-12 Ry

     total magnetization       =     1.00 Bohr mag/cell
     absolute magnetization    =     1.57 Bohr mag/cell

     iteration # 15     ecut=   120.00 Ry     beta=0.70
     CG style diagonalization
     ethr =  1.00E-13,  avg # of iterations =  3.6
 
     Magnetic moment per site:
     atom:    1    charge:    0.8440    magn:   -0.0040    constr:    0.0000
     atom:    2    charge:    0.8439    magn:   -0.0040    constr:    0.0000
     atom:    3    charge:    0.8447    magn:   -0.0101    constr:    0.0000
     atom:    4    charge:    0.8431    magn:   -0.0096    constr:    0.0000
     atom:    5    charge:    0.8431    magn:   -0.0096    constr:    0.0000
     atom:    6    charge:    0.8447    magn:   -0.0101    constr:    0.0000
     atom:    7    charge:    0.4973    magn:    0.0002    constr:    0.0000
     atom:    8    charge:    0.4978    magn:    0.0002    constr:    0.0000
     atom:    9    charge:    0.4962    magn:    0.0004    constr:    0.0000
     atom:   10    charge:    0.4954    magn:    0.0004    constr:    0.0000
     atom:   11    charge:    0.4959    magn:    0.0004    constr:    0.0000
     atom:   12    charge:    0.4962    magn:    0.0004    constr:    0.0000
     atom:   13    charge:    5.8059    magn:    1.1339    constr:    0.0000

     total cpu time spent up to now is      671.0 secs

     The total energy is the sum of the following terms:

     one-electron contribution =    -702.94152563 Ry
     hartree contribution      =     350.80172459 Ry
     xc contribution           =     -30.73869054 Ry
     ewald contribution        =     268.46058250 Ry

     total energy              =    -114.41790333 Ry
     Harris-Foulkes estimate   =    -114.41790333 Ry
     estimated scf accuracy    <          1.2E-12 Ry

     total magnetization       =     1.00 Bohr mag/cell
     absolute magnetization    =     1.57 Bohr mag/cell

     iteration # 16     ecut=   120.00 Ry     beta=0.70
     CG style diagonalization
     ethr =  1.00E-13,  avg # of iterations =  3.6
 
     Magnetic moment per site:
     atom:    1    charge:    0.8440    magn:   -0.0040    constr:    0.0000
     atom:    2    charge:    0.8439    magn:   -0.0040    constr:    0.0000
     atom:    3    charge:    0.8446    magn:   -0.0101    constr:    0.0000
     atom:    4    charge:    0.8431    magn:   -0.0096    constr:    0.0000
     atom:    5    charge:    0.8431    magn:   -0.0096    constr:    0.0000
     atom:    6    charge:    0.8447    magn:   -0.0101    constr:    0.0000
     atom:    7    charge:    0.4973    magn:    0.0002    constr:    0.0000
     atom:    8    charge:    0.4978    magn:    0.0002    constr:    0.0000
     atom:    9    charge:    0.4962    magn:    0.0004    constr:    0.0000
     atom:   10    charge:    0.4954    magn:    0.0004    constr:    0.0000
     atom:   11    charge:    0.4959    magn:    0.0004    constr:    0.0000
     atom:   12    charge:    0.4962    magn:    0.0004    constr:    0.0000
     atom:   13    charge:    5.8059    magn:    1.1339    constr:    0.0000

     total cpu time spent up to now is      676.9 secs

     End of self-consistent calculation

 ------ SPIN UP ------------


          k = 0.0000 0.0000 0.0000 (599244 PWs)   bands (ev):

   -25.3257 -22.5857 -22.5394 -19.5730 -19.0088 -19.0023 -17.1724 -15.5023
   -15.0562 -14.5182 -14.4827 -13.2310 -12.5032 -12.5019 -10.5542 -10.4983
    -8.0605  -6.7392  -6.7256  -5.4240  -5.3901  -5.2019  -4.7471  -4.7396
    -4.1717  -4.1698  -4.0283  -3.4178  -3.3891  -3.3477  -3.2025  -2.8877
    -2.6669  -2.4996  -2.4960  -2.2283  -2.2170  -2.2121  -2.1849  -2.0101

     occupation numbers 
     1.0000   1.0000   1.0000   1.0000   1.0000   1.0000   1.0000   1.0000
     1.0000   1.0000   1.0000   1.0000   1.0000   1.0000   1.0000   1.0000
     1.0000   1.0000   1.0000   0.0000   0.0000   0.0000   0.0000   0.0000
     0.0000   0.0000   0.0000   0.0000   0.0000   0.0000   0.0000   0.0000
     0.0000   0.0000   0.0000   0.0000   0.0000   0.0000   0.0000   0.0000

 ------ SPIN DOWN ----------


          k = 0.0000 0.0000 0.0000 (599244 PWs)   bands (ev):

   -25.3660 -22.6283 -22.5935 -19.0497 -19.0485 -18.0132 -17.1876 -15.5378
   -15.0749 -14.5285 -14.4963 -13.3346 -12.5185 -12.5157 -10.6647 -10.6422
    -6.1368  -6.1122  -5.4976  -5.4883  -5.3455  -5.2351  -4.8029  -4.7761
    -4.2256  -4.2220  -4.0898  -3.4679  -3.4581  -3.4119  -3.2602  -2.9320
    -2.7128  -2.5724  -2.5678  -2.2818  -2.2696  -2.2664  -2.2143  -2.1105

     occupation numbers 
     1.0000   1.0000   1.0000   1.0000   1.0000   1.0000   1.0000   1.0000
     1.0000   1.0000   1.0000   1.0000   1.0000   1.0000   1.0000   1.0000
     1.0000   1.0000   0.0000   0.0000   0.0000   0.0000   0.0000   0.0000
     0.0000   0.0000   0.0000   0.0000   0.0000   0.0000   0.0000   0.0000
     0.0000   0.0000   0.0000   0.0000   0.0000   0.0000   0.0000   0.0000

     highest occupied, lowest unoccupied level (ev):    -6.1122   -5.4976

     The total energy is the sum of the following terms:

     one-electron contribution =    -702.94151408 Ry
     hartree contribution      =     350.80171797 Ry
     xc contribution           =     -30.73868971 Ry
     ewald contribution        =     268.46058250 Ry

!    total energy              =    -114.41790333 Ry
     Harris-Foulkes estimate   =    -114.41790333 Ry
     estimated scf accuracy    <          3.8E-13 Ry

     The total energy is the sum of the following terms:

     one-electron contribution =    -702.94151408 Ry
     hartree contribution      =     350.80171797 Ry
     xc contribution           =     -30.73868971 Ry
     ewald contribution        =     268.46058250 Ry

     total magnetization       =     1.00 Bohr mag/cell
     absolute magnetization    =     1.57 Bohr mag/cell

     convergence has been achieved in  16 iterations
 
     Using Hirshfeld
        Amplitude [Ry a.u.] : -3.8780E-01
        Acceptor Fragment start :          13
        Acceptor Fragment end   :          13
        Donor Fragment start :           1
        Donor Fragment end   :          12
 
 
     Using Hirshfeld
        Amplitude [Ry a.u.] : -3.8780E-01
        Acceptor Fragment start :          13
        Acceptor Fragment end   :          13
        Donor Fragment start :           1
        Donor Fragment end   :          12
 
     E field correction              :  0.9307148320559481E+01 Ry    
 
     Donor charge                    :     -0.3495902501598174 e     
     Acceptor charge                 :      0.6504125178827298 e     
     Difference of charges           :     -1.0000027680425525 e     

     Writing output data file right.save
 
     init_run     :     37.02s CPU     37.02s WALL (       1 calls)
     electrons    :    623.09s CPU    623.09s WALL (       3 calls)
     update_pot   :      1.89s CPU      1.89s WALL (       2 calls)

     Called by init_run:
     wfcinit      :      6.49s CPU      6.49s WALL (       1 calls)
     potinit      :      1.87s CPU      1.87s WALL (       1 calls)

     Called by electrons:
     c_bands      :    459.28s CPU    459.28s WALL (      79 calls)
     sum_band     :     29.09s CPU     29.09s WALL (      79 calls)
     v_of_rho     :     75.00s CPU     75.00s WALL (      82 calls)
     v_h          :      1.07s CPU      1.07s WALL (      82 calls)
     v_xc         :     73.92s CPU     73.92s WALL (      82 calls)
     mix_rho      :      3.67s CPU      3.67s WALL (      79 calls)

     Called by c_bands:
     init_us_2    :      1.46s CPU      1.46s WALL (     318 calls)
     rcgdiagg     :    388.77s CPU    388.77s WALL (     162 calls)
     wfcrot       :     70.62s CPU     70.62s WALL (     158 calls)

     Called by sum_band:

     Called by *cgdiagg:
     h_psi        :    392.54s CPU    392.54s WALL (   24511 calls)
     rdiaghg      :     11.07s CPU     11.07s WALL (     158 calls)
     rdiaghg:chol :      0.87s CPU      0.87s WALL (     158 calls)
     rdiaghg:inve :      0.15s CPU      0.15s WALL (     158 calls)
     rdiaghg:para :      0.85s CPU      0.85s WALL (     316 calls)

     Called by h_psi:
     h_psi:vloc   :    339.52s CPU    339.52s WALL (   24511 calls)
     h_psi:vnl    :     52.47s CPU     52.47s WALL (   24511 calls)
     add_vuspsi   :     33.86s CPU     33.88s WALL (   24511 calls)

     General routines
     calbec       :     25.67s CPU     25.72s WALL (   48864 calls)
     fft          :     34.89s CPU     34.89s WALL (    3584 calls)
     fftw         :    322.14s CPU    322.16s WALL (   58522 calls)
 
     Parallel routines
     fft_scatter  :    139.10s CPU    139.13s WALL (   62106 calls)
 
     PWSCF        : 12m20.10s CPU    12m20.10s WALL

 
   This run was terminated on:  20: 0:40   8Jan2016            

=------------------------------------------------------------------------------=
   JOB DONE.
=------------------------------------------------------------------------------=
2016-01-08 20:00:58.152 (INFO ) [0xfffaba1c410] CET-00000-11331-128:1513580:ibm.runjob.client.Job: exited with status 0
2016-01-08 20:00:58.153 (INFO ) [0xfffaba1c410] tatu.runjob.client: task exited with status 0
2016-01-08 20:00:58.153 (INFO ) [0xfff84ca34e0] 5633:tatu.runjob.monitor: monitor terminating
2016-01-08 20:00:58.157 (INFO ) [0xfffaba1c410] tatu.runjob.client: monitor completed
