2016-01-12 23:15:54.525 (INFO ) [0xfff9c29c410] ibm.runjob.AbstractOptions: using properties file /bgsys/local/etc/bg.properties
2016-01-12 23:15:54.535 (INFO ) [0xfff9c29c410] ibm.runjob.AbstractOptions: max open file descriptors: 65536
2016-01-12 23:15:54.535 (INFO ) [0xfff9c29c410] ibm.runjob.AbstractOptions: core file limit: 18446744073709551615
2016-01-12 23:15:54.536 (INFO ) [0xfff9c29c410] 26038:tatu.runjob.client: scheduler job id is 694677
2016-01-12 23:15:54.550 (INFO ) [0xfff967834e0] 26038:tatu.runjob.monitor: monitor started
2016-01-12 23:15:55.037 (INFO ) [0xfff967834e0] 26038:tatu.runjob.monitor: task record 1458305 created
2016-01-12 23:15:55.037 (INFO ) [0xfff9c29c410] CET-40000-51331-128:26038:ibm.runjob.client.options.Parser: set local socket to runjob_mux from properties file
2016-01-12 23:15:57.254 (INFO ) [0xfff9c29c410] CET-40000-51331-128:1514565:ibm.runjob.client.Job: job 1514565 started

     Program PWSCF v.5.1.1 starts on 12Jan2016 at 23:15:57 

     This program is part of the open-source Quantum ESPRESSO suite
     for quantum simulation of materials; please cite
         "P. Giannozzi et al., J. Phys.:Condens. Matter 21 395502 (2009);
          URL http://www.quantum-espresso.org", 
     in publications or presentations arising from this work. More details at
     http://www.quantum-espresso.org/quote

     Parallel version (MPI & OpenMP), running on     256 processor cores
     Number of MPI processes:               256
     Threads/MPI process:                     1
     R & G space division:  proc/nbgrp/npool/nimage =     256
     Waiting for input...
     Reading input from standard input

     Current dimensions of program PWSCF are:
     Max number of different atomic species (ntypx) = 10
     Max number of k-points (npk) =  40000
     Max angular momentum in pseudopotentials (lmaxx) =  3
               file C.pbe-mt_fhi.UPF: wavefunction(s)  4f renormalized
               file H.pbe-mt_fhi.UPF: wavefunction(s)  2p 4f renormalized
               file Cl.pbe-mt_fhi.UPF: wavefunction(s)  4f renormalized

     gamma-point specific algorithms are used
     Message from routine setup:
     the system is metallic, specify occupations

     Subspace diagonalization in iterative solution of the eigenvalue problem:
     scalapack distributed-memory algorithm (size of sub-group: 11* 11 procs)

 
     Parallelization info
     --------------------
     sticks:   dense  smooth     PW     G-vecs:    dense   smooth      PW
     Min         114     114     27                14918    14918    1856
     Max         116     116     30                14956    14956    1882
     Sum       29541   29541   7393              3823391  3823391  477921
     Tot       14771   14771   3697
 
     Generating pointlists ...
     new r_m :   0.0263 (alat units)  0.8450 (a.u.) for type    1
     new r_m :   0.0263 (alat units)  0.8450 (a.u.) for type    2
     new r_m :   0.0747 (alat units)  2.4011 (a.u.) for type    3
2016-01-12 23:16:01.059 (INFO ) [0xfff967834e0] 26038:tatu.runjob.monitor: tracklib completed


     bravais-lattice index     =            1
     lattice parameter (alat)  =      32.1253  a.u.
     unit-cell volume          =   33154.5678 (a.u.)^3
     number of atoms/cell      =           13
     number of atomic types    =            3
     number of electrons       =        37.00 (up:  19.00, down:  18.00)
     number of Kohn-Sham states=           19
     kinetic-energy cutoff     =      90.0000  Ry
     charge density cutoff     =     360.0000  Ry
     convergence threshold     =      1.0E-12
     mixing beta               =       0.7000
     number of iterations used =            8  plain     mixing
     Exchange-correlation      = PBE ( 1  4  3  4 0 0)
     Assuming isolated system, Martyna-Tuckerman method


     celldm(1)=  32.125344  celldm(2)=   0.000000  celldm(3)=   0.000000
     celldm(4)=   0.000000  celldm(5)=   0.000000  celldm(6)=   0.000000

     crystal axes: (cart. coord. in units of alat)
               a(1) = (   1.000000   0.000000   0.000000 )  
               a(2) = (   0.000000   1.000000   0.000000 )  
               a(3) = (   0.000000   0.000000   1.000000 )  

     reciprocal axes: (cart. coord. in units 2 pi/alat)
               b(1) = (  1.000000  0.000000  0.000000 )  
               b(2) = (  0.000000  1.000000  0.000000 )  
               b(3) = (  0.000000  0.000000  1.000000 )  


     PseudoPot. # 1 for  C read from file:
     ./C.pbe-mt_fhi.UPF
     MD5 check sum: 058ca341f9d6d5327d9962fd88a91b65
     Pseudo is Norm-conserving, Zval =  4.0
     Generated using FHI98PP, converted with fhi2upf.x v.5.0.2
     Using radial grid of  461 points,  3 beta functions with: 
                l(1) =   0
                l(2) =   1
                l(3) =   3

     PseudoPot. # 2 for  H read from file:
     ./H.pbe-mt_fhi.UPF
     MD5 check sum: a19bd5488733b3d98581df861506e80d
     Pseudo is Norm-conserving, Zval =  1.0
     Generated using FHI98PP, converted with fhi2upf.x v.5.0.2
     Using radial grid of  387 points,  3 beta functions with: 
                l(1) =   0
                l(2) =   1
                l(3) =   3

     PseudoPot. # 3 for Cl read from file:
     ./Cl.pbe-mt_fhi.UPF
     MD5 check sum: 2690b95bbfe21454a1a3af22474751ef
     Pseudo is Norm-conserving, Zval =  7.0
     Generated using FHI98PP, converted with fhi2upf.x v.5.0.2
     Using radial grid of  503 points,  3 beta functions with: 
                l(1) =   0
                l(2) =   1
                l(3) =   3

     atomic species   valence    mass     pseudopotential
        C              4.00    12.01070      C( 1.00)
        H              1.00     1.00794      H( 1.00)
        Cl             7.00     1.00000     Cl( 1.00)

     Starting magnetic structure 
     atomic species   magnetization
        C            0.000
        H            0.000
        Cl           0.000

     No symmetry found


                                    s                        frac. trans.

      isym =  1     identity                                     

 cryst.   s( 1) = (     1          0          0      )
                  (     0          1          0      )
                  (     0          0          1      )

 cart.    s( 1) = (  1.0000000  0.0000000  0.0000000 )
                  (  0.0000000  1.0000000  0.0000000 )
                  (  0.0000000  0.0000000  1.0000000 )


     point group C_1 (1)    
     there are  1 classes
     the character table:

       E    
A      1.00

     the symmetry operations in each class:
     E        1

   Cartesian axes

     site n.     atom                  positions (alat units)
         1           C   tau(   1) = (   0.0000000   0.0821765   0.0000000  )
         2           C   tau(   2) = (   0.0711647   0.0410882   0.0000000  )
         3           C   tau(   3) = (   0.0711647  -0.0410882   0.0000000  )
         4           C   tau(   4) = (   0.0000000  -0.0821765   0.0000000  )
         5           C   tau(   5) = (  -0.0711647  -0.0410882   0.0000000  )
         6           C   tau(   6) = (  -0.0711647   0.0410882   0.0000000  )
         7           H   tau(   7) = (   0.0000000   0.1459412   0.0000000  )
         8           H   tau(   8) = (   0.1263882   0.0729706   0.0000000  )
         9           H   tau(   9) = (   0.1263882  -0.0729706   0.0000000  )
        10           H   tau(  10) = (   0.0000000  -0.1459412   0.0000000  )
        11           H   tau(  11) = (  -0.1263882  -0.0729706   0.0000000  )
        12           H   tau(  12) = (  -0.1263882   0.0729706   0.0000000  )
        13           Cl  tau(  13) = (   0.0355824   0.0616324   0.1764706  )

   Crystallographic axes

     site n.     atom                  positions (cryst. coord.)
         1           C   tau(   1) = (  0.0000000  0.0821765  0.0000000  )
         2           C   tau(   2) = (  0.0711647  0.0410882  0.0000000  )
         3           C   tau(   3) = (  0.0711647 -0.0410882  0.0000000  )
         4           C   tau(   4) = (  0.0000000 -0.0821765  0.0000000  )
         5           C   tau(   5) = ( -0.0711647 -0.0410882  0.0000000  )
         6           C   tau(   6) = ( -0.0711647  0.0410882  0.0000000  )
         7           H   tau(   7) = (  0.0000000  0.1459412  0.0000000  )
         8           H   tau(   8) = (  0.1263882  0.0729706  0.0000000  )
         9           H   tau(   9) = (  0.1263882 -0.0729706  0.0000000  )
        10           H   tau(  10) = (  0.0000000 -0.1459412  0.0000000  )
        11           H   tau(  11) = ( -0.1263882 -0.0729706  0.0000000  )
        12           H   tau(  12) = ( -0.1263882  0.0729706  0.0000000  )
        13           Cl  tau(  13) = (  0.0355824  0.0616324  0.1764706  )

     number of k points=     2
                       cart. coord. in units 2pi/alat
        k(    1) = (   0.0000000   0.0000000   0.0000000), wk =   1.0000000
        k(    2) = (   0.0000000   0.0000000   0.0000000), wk =   1.0000000

                       cryst. coord.
        k(    1) = (   0.0000000   0.0000000   0.0000000), wk =   1.0000000
        k(    2) = (   0.0000000   0.0000000   0.0000000), wk =   1.0000000

     Dense  grid:  1911696 G-vectors     FFT dimensions: ( 198, 198, 198)

     Largest allocated arrays     est. size (Mb)     dimensions
        Kohn-Sham Wavefunctions         0.27 Mb     (     930,   19)
        NL pseudopotentials             2.03 Mb     (     930,  143)
        Each V/rho on FFT grid          1.20 Mb     (   39204,   2)
        Each G-vector array             0.06 Mb     (    7461)
        G-vector shells                 0.02 Mb     (    2848)
     Largest temporary arrays     est. size (Mb)     dimensions
        Auxiliary wavefunctions         0.54 Mb     (     930,   76)
        Each subspace H/S matrix        0.00 Mb     (       6,    6)
        Each <psi_i|beta_j> matrix      0.02 Mb     (     143,   19)
        Arrays for rho mixing           4.79 Mb     (   39204,    8)
 
     Using Hirshfeld
        Amplitude [Ry a.u.] :  1.1753E-01
        Acceptor Fragment start :          13
        Acceptor Fragment end   :          13
        Donor Fragment start :           1
        Donor Fragment end   :          12
 

     Initial potential from superposition of free atoms
     Check: negative starting charge=(component1):   -0.000758
     Check: negative starting charge=(component2):   -0.000758

     starting charge   36.99968, renormalised to   37.00000

     negative rho (up, down):  7.580E-04 7.580E-04
     Starting wfc are  208 randomized atomic wfcs

     total cpu time spent up to now is       16.0 secs

     per-process dynamical memory:    53.4 Mb

     Self-consistent Calculation

     iteration #  1     ecut=    90.00 Ry     beta=0.70
     Davidson diagonalization with overlap
     ethr =  1.00E-02,  avg # of iterations =  3.0

     negative rho (up, down):  1.006E-04 9.760E-05
 
     Magnetic moment per site:
     atom:    1    charge:    0.8528    magn:    0.0300    constr:    0.0000
     atom:    2    charge:    0.8530    magn:    0.0304    constr:    0.0000
     atom:    3    charge:    0.8838    magn:   -0.0002    constr:    0.0000
     atom:    4    charge:    0.8587    magn:    0.0236    constr:    0.0000
     atom:    5    charge:    0.8590    magn:    0.0236    constr:    0.0000
     atom:    6    charge:    0.8836    magn:   -0.0004    constr:    0.0000
     atom:    7    charge:    0.4444    magn:    0.0008    constr:    0.0000
     atom:    8    charge:    0.4437    magn:    0.0006    constr:    0.0000
     atom:    9    charge:    0.4445    magn:    0.0000    constr:    0.0000
     atom:   10    charge:    0.4447    magn:    0.0004    constr:    0.0000
     atom:   11    charge:    0.4442    magn:    0.0004    constr:    0.0000
     atom:   12    charge:    0.4445    magn:    0.0000    constr:    0.0000
     atom:   13    charge:    6.6288    magn:    0.1202    constr:    0.0000

     total cpu time spent up to now is       18.6 secs

     The total energy is the sum of the following terms:

     one-electron contribution =    -695.64874422 Ry
     hartree contribution      =     350.95653060 Ry
     xc contribution           =     -30.89912038 Ry
     ewald contribution        =     268.46058250 Ry

     total energy              =    -102.49127104 Ry
     Harris-Foulkes estimate   =    -103.23717029 Ry
     estimated scf accuracy    <       1.26252926 Ry

     total magnetization       =     1.00 Bohr mag/cell
     absolute magnetization    =     1.01 Bohr mag/cell

     iteration #  2     ecut=    90.00 Ry     beta=0.70
     Davidson diagonalization with overlap
     ethr =  3.41E-03,  avg # of iterations =  2.0

     negative rho (up, down):  3.664E-05 3.607E-05
 
     Magnetic moment per site:
     atom:    1    charge:    0.8521    magn:    0.0237    constr:    0.0000
     atom:    2    charge:    0.8523    magn:    0.0239    constr:    0.0000
     atom:    3    charge:    0.8503    magn:   -0.0007    constr:    0.0000
     atom:    4    charge:    0.8568    magn:    0.0149    constr:    0.0000
     atom:    5    charge:    0.8570    magn:    0.0149    constr:    0.0000
     atom:    6    charge:    0.8503    magn:   -0.0008    constr:    0.0000
     atom:    7    charge:    0.4735    magn:   -0.0002    constr:    0.0000
     atom:    8    charge:    0.4729    magn:   -0.0003    constr:    0.0000
     atom:    9    charge:    0.4741    magn:   -0.0001    constr:    0.0000
     atom:   10    charge:    0.4755    magn:   -0.0004    constr:    0.0000
     atom:   11    charge:    0.4749    magn:   -0.0004    constr:    0.0000
     atom:   12    charge:    0.4741    magn:   -0.0001    constr:    0.0000
     atom:   13    charge:    6.2945    magn:    0.4006    constr:    0.0000

     total cpu time spent up to now is       20.7 secs

     The total energy is the sum of the following terms:

     one-electron contribution =    -688.49236362 Ry
     hartree contribution      =     349.36351753 Ry
     xc contribution           =     -30.69227368 Ry
     ewald contribution        =     268.46058250 Ry

     total energy              =    -102.64902558 Ry
     Harris-Foulkes estimate   =    -102.84316234 Ry
     estimated scf accuracy    <       0.33895743 Ry

     total magnetization       =     1.00 Bohr mag/cell
     absolute magnetization    =     1.07 Bohr mag/cell

     iteration #  3     ecut=    90.00 Ry     beta=0.70
     Davidson diagonalization with overlap
     ethr =  9.16E-04,  avg # of iterations =  3.0

     negative rho (up, down):  1.683E-05 1.692E-05
 
     Magnetic moment per site:
     atom:    1    charge:    0.8403    magn:    0.0305    constr:    0.0000
     atom:    2    charge:    0.8405    magn:    0.0307    constr:    0.0000
     atom:    3    charge:    0.8429    magn:   -0.0014    constr:    0.0000
     atom:    4    charge:    0.8411    magn:    0.0231    constr:    0.0000
     atom:    5    charge:    0.8413    magn:    0.0231    constr:    0.0000
     atom:    6    charge:    0.8429    magn:   -0.0015    constr:    0.0000
     atom:    7    charge:    0.4843    magn:   -0.0002    constr:    0.0000
     atom:    8    charge:    0.4836    magn:   -0.0004    constr:    0.0000
     atom:    9    charge:    0.4854    magn:   -0.0002    constr:    0.0000
     atom:   10    charge:    0.4865    magn:   -0.0002    constr:    0.0000
     atom:   11    charge:    0.4858    magn:   -0.0002    constr:    0.0000
     atom:   12    charge:    0.4854    magn:   -0.0002    constr:    0.0000
     atom:   13    charge:    6.4563    magn:    0.3145    constr:    0.0000

     total cpu time spent up to now is       22.8 secs

     The total energy is the sum of the following terms:

     one-electron contribution =    -687.80879392 Ry
     hartree contribution      =     348.56826722 Ry
     xc contribution           =     -30.72550399 Ry
     ewald contribution        =     268.46058250 Ry

     total energy              =    -102.73698713 Ry
     Harris-Foulkes estimate   =    -102.84750329 Ry
     estimated scf accuracy    <       0.26760836 Ry

     total magnetization       =     1.00 Bohr mag/cell
     absolute magnetization    =     1.10 Bohr mag/cell

     iteration #  4     ecut=    90.00 Ry     beta=0.70
     Davidson diagonalization with overlap
     ethr =  7.23E-04,  avg # of iterations =  2.0

     negative rho (up, down):  2.100E-06 2.104E-06
 
     Magnetic moment per site:
     atom:    1    charge:    0.8339    magn:    0.0356    constr:    0.0000
     atom:    2    charge:    0.8342    magn:    0.0358    constr:    0.0000
     atom:    3    charge:    0.8415    magn:   -0.0023    constr:    0.0000
     atom:    4    charge:    0.8401    magn:    0.0224    constr:    0.0000
     atom:    5    charge:    0.8403    magn:    0.0224    constr:    0.0000
     atom:    6    charge:    0.8415    magn:   -0.0024    constr:    0.0000
     atom:    7    charge:    0.4913    magn:   -0.0005    constr:    0.0000
     atom:    8    charge:    0.4906    magn:   -0.0006    constr:    0.0000
     atom:    9    charge:    0.4915    magn:    0.0001    constr:    0.0000
     atom:   10    charge:    0.4935    magn:   -0.0005    constr:    0.0000
     atom:   11    charge:    0.4929    magn:   -0.0006    constr:    0.0000
     atom:   12    charge:    0.4915    magn:    0.0001    constr:    0.0000
     atom:   13    charge:    6.4580    magn:    0.3557    constr:    0.0000

     total cpu time spent up to now is       24.7 secs

     The total energy is the sum of the following terms:

     one-electron contribution =    -689.47419089 Ry
     hartree contribution      =     348.81115718 Ry
     xc contribution           =     -30.77039262 Ry
     ewald contribution        =     268.46058250 Ry

     total energy              =    -102.77160332 Ry
     Harris-Foulkes estimate   =    -102.77289191 Ry
     estimated scf accuracy    <       0.00417760 Ry

     total magnetization       =     1.00 Bohr mag/cell
     absolute magnetization    =     1.09 Bohr mag/cell

     iteration #  5     ecut=    90.00 Ry     beta=0.70
     Davidson diagonalization with overlap
     ethr =  1.13E-05,  avg # of iterations =  4.0

     negative rho (up, down):  7.055E-07 7.136E-07
 
     Magnetic moment per site:
     atom:    1    charge:    0.8382    magn:    0.0377    constr:    0.0000
     atom:    2    charge:    0.8384    magn:    0.0379    constr:    0.0000
     atom:    3    charge:    0.8428    magn:   -0.0037    constr:    0.0000
     atom:    4    charge:    0.8394    magn:    0.0233    constr:    0.0000
     atom:    5    charge:    0.8396    magn:    0.0233    constr:    0.0000
     atom:    6    charge:    0.8428    magn:   -0.0038    constr:    0.0000
     atom:    7    charge:    0.4905    magn:   -0.0008    constr:    0.0000
     atom:    8    charge:    0.4898    magn:   -0.0009    constr:    0.0000
     atom:    9    charge:    0.4910    magn:    0.0000    constr:    0.0000
     atom:   10    charge:    0.4929    magn:   -0.0007    constr:    0.0000
     atom:   11    charge:    0.4922    magn:   -0.0007    constr:    0.0000
     atom:   12    charge:    0.4910    magn:    0.0000    constr:    0.0000
     atom:   13    charge:    6.4524    magn:    0.3627    constr:    0.0000

     total cpu time spent up to now is       27.4 secs

     The total energy is the sum of the following terms:

     one-electron contribution =    -689.79082873 Ry
     hartree contribution      =     348.99381727 Ry
     xc contribution           =     -30.78839939 Ry
     ewald contribution        =     268.46058250 Ry

     total energy              =    -102.77419330 Ry
     Harris-Foulkes estimate   =    -102.77542125 Ry
     estimated scf accuracy    <       0.00279977 Ry

     total magnetization       =     1.00 Bohr mag/cell
     absolute magnetization    =     1.15 Bohr mag/cell

     iteration #  6     ecut=    90.00 Ry     beta=0.70
     Davidson diagonalization with overlap
     ethr =  7.57E-06,  avg # of iterations =  3.5

     negative rho (up, down):  1.901E-07 1.945E-07
 
     Magnetic moment per site:
     atom:    1    charge:    0.8380    magn:    0.0406    constr:    0.0000
     atom:    2    charge:    0.8382    magn:    0.0407    constr:    0.0000
     atom:    3    charge:    0.8434    magn:   -0.0052    constr:    0.0000
     atom:    4    charge:    0.8407    magn:    0.0239    constr:    0.0000
     atom:    5    charge:    0.8409    magn:    0.0239    constr:    0.0000
     atom:    6    charge:    0.8434    magn:   -0.0053    constr:    0.0000
     atom:    7    charge:    0.4900    magn:   -0.0011    constr:    0.0000
     atom:    8    charge:    0.4893    magn:   -0.0011    constr:    0.0000
     atom:    9    charge:    0.4905    magn:   -0.0001    constr:    0.0000
     atom:   10    charge:    0.4922    magn:   -0.0009    constr:    0.0000
     atom:   11    charge:    0.4915    magn:   -0.0009    constr:    0.0000
     atom:   12    charge:    0.4905    magn:   -0.0001    constr:    0.0000
     atom:   13    charge:    6.4538    magn:    0.3600    constr:    0.0000

     total cpu time spent up to now is       29.7 secs

     The total energy is the sum of the following terms:

     one-electron contribution =    -689.42541324 Ry
     hartree contribution      =     349.02471137 Ry
     xc contribution           =     -30.79400792 Ry
     ewald contribution        =     268.46058250 Ry

     total energy              =    -102.77492910 Ry
     Harris-Foulkes estimate   =    -102.77507516 Ry
     estimated scf accuracy    <       0.00079711 Ry

     total magnetization       =     1.00 Bohr mag/cell
     absolute magnetization    =     1.16 Bohr mag/cell

     iteration #  7     ecut=    90.00 Ry     beta=0.70
     Davidson diagonalization with overlap
     ethr =  2.15E-06,  avg # of iterations =  2.5

     negative rho (up, down):  3.281E-07 3.360E-07
 
     Magnetic moment per site:
     atom:    1    charge:    0.8373    magn:    0.0437    constr:    0.0000
     atom:    2    charge:    0.8375    magn:    0.0438    constr:    0.0000
     atom:    3    charge:    0.8434    magn:   -0.0072    constr:    0.0000
     atom:    4    charge:    0.8405    magn:    0.0246    constr:    0.0000
     atom:    5    charge:    0.8407    magn:    0.0247    constr:    0.0000
     atom:    6    charge:    0.8434    magn:   -0.0072    constr:    0.0000
     atom:    7    charge:    0.4900    magn:   -0.0015    constr:    0.0000
     atom:    8    charge:    0.4894    magn:   -0.0015    constr:    0.0000
     atom:    9    charge:    0.4906    magn:   -0.0001    constr:    0.0000
     atom:   10    charge:    0.4922    magn:   -0.0011    constr:    0.0000
     atom:   11    charge:    0.4915    magn:   -0.0011    constr:    0.0000
     atom:   12    charge:    0.4906    magn:   -0.0001    constr:    0.0000
     atom:   13    charge:    6.4557    magn:    0.3574    constr:    0.0000

     total cpu time spent up to now is       31.6 secs

     The total energy is the sum of the following terms:

     one-electron contribution =    -689.39274791 Ry
     hartree contribution      =     348.99077253 Ry
     xc contribution           =     -30.79270870 Ry
     ewald contribution        =     268.46058250 Ry

     total energy              =    -102.77506132 Ry
     Harris-Foulkes estimate   =    -102.77505681 Ry
     estimated scf accuracy    <       0.00012808 Ry

     total magnetization       =     1.00 Bohr mag/cell
     absolute magnetization    =     1.18 Bohr mag/cell

     iteration #  8     ecut=    90.00 Ry     beta=0.70
     Davidson diagonalization with overlap
     ethr =  3.46E-07,  avg # of iterations =  4.5
 
     Magnetic moment per site:
     atom:    1    charge:    0.8375    magn:    0.0440    constr:    0.0000
     atom:    2    charge:    0.8377    magn:    0.0441    constr:    0.0000
     atom:    3    charge:    0.8431    magn:   -0.0077    constr:    0.0000
     atom:    4    charge:    0.8405    magn:    0.0246    constr:    0.0000
     atom:    5    charge:    0.8407    magn:    0.0247    constr:    0.0000
     atom:    6    charge:    0.8431    magn:   -0.0077    constr:    0.0000
     atom:    7    charge:    0.4902    magn:   -0.0016    constr:    0.0000
     atom:    8    charge:    0.4895    magn:   -0.0016    constr:    0.0000
     atom:    9    charge:    0.4907    magn:    0.0000    constr:    0.0000
     atom:   10    charge:    0.4923    magn:   -0.0011    constr:    0.0000
     atom:   11    charge:    0.4917    magn:   -0.0011    constr:    0.0000
     atom:   12    charge:    0.4907    magn:    0.0000    constr:    0.0000
     atom:   13    charge:    6.4538    magn:    0.3597    constr:    0.0000

     total cpu time spent up to now is       34.3 secs

     The total energy is the sum of the following terms:

     one-electron contribution =    -689.45265066 Ry
     hartree contribution      =     348.99075190 Ry
     xc contribution           =     -30.79278239 Ry
     ewald contribution        =     268.46058250 Ry

     total energy              =    -102.77513111 Ry
     Harris-Foulkes estimate   =    -102.77515506 Ry
     estimated scf accuracy    <       0.00010023 Ry

     total magnetization       =     1.00 Bohr mag/cell
     absolute magnetization    =     1.20 Bohr mag/cell

     iteration #  9     ecut=    90.00 Ry     beta=0.70
     Davidson diagonalization with overlap
     ethr =  2.71E-07,  avg # of iterations =  1.0

     negative rho (up, down):  1.093E-07 1.138E-07
 
     Magnetic moment per site:
     atom:    1    charge:    0.8376    magn:    0.0453    constr:    0.0000
     atom:    2    charge:    0.8378    magn:    0.0454    constr:    0.0000
     atom:    3    charge:    0.8430    magn:   -0.0087    constr:    0.0000
     atom:    4    charge:    0.8403    magn:    0.0249    constr:    0.0000
     atom:    5    charge:    0.8405    magn:    0.0249    constr:    0.0000
     atom:    6    charge:    0.8430    magn:   -0.0088    constr:    0.0000
     atom:    7    charge:    0.4903    magn:   -0.0018    constr:    0.0000
     atom:    8    charge:    0.4896    magn:   -0.0018    constr:    0.0000
     atom:    9    charge:    0.4908    magn:    0.0000    constr:    0.0000
     atom:   10    charge:    0.4924    magn:   -0.0011    constr:    0.0000
     atom:   11    charge:    0.4917    magn:   -0.0011    constr:    0.0000
     atom:   12    charge:    0.4908    magn:    0.0000    constr:    0.0000
     atom:   13    charge:    6.4537    magn:    0.3590    constr:    0.0000

     total cpu time spent up to now is       35.9 secs

     The total energy is the sum of the following terms:

     one-electron contribution =    -689.41905397 Ry
     hartree contribution      =     348.97618430 Ry
     xc contribution           =     -30.79195000 Ry
     ewald contribution        =     268.46058250 Ry

     total energy              =    -102.77514795 Ry
     Harris-Foulkes estimate   =    -102.77514565 Ry
     estimated scf accuracy    <       0.00000559 Ry

     total magnetization       =     1.00 Bohr mag/cell
     absolute magnetization    =     1.20 Bohr mag/cell

     iteration # 10     ecut=    90.00 Ry     beta=0.70
     Davidson diagonalization with overlap
     ethr =  1.51E-08,  avg # of iterations =  5.0
 
     Magnetic moment per site:
     atom:    1    charge:    0.8376    magn:    0.0454    constr:    0.0000
     atom:    2    charge:    0.8378    magn:    0.0454    constr:    0.0000
     atom:    3    charge:    0.8431    magn:   -0.0089    constr:    0.0000
     atom:    4    charge:    0.8403    magn:    0.0249    constr:    0.0000
     atom:    5    charge:    0.8406    magn:    0.0250    constr:    0.0000
     atom:    6    charge:    0.8431    magn:   -0.0089    constr:    0.0000
     atom:    7    charge:    0.4902    magn:   -0.0018    constr:    0.0000
     atom:    8    charge:    0.4896    magn:   -0.0018    constr:    0.0000
     atom:    9    charge:    0.4907    magn:    0.0001    constr:    0.0000
     atom:   10    charge:    0.4924    magn:   -0.0011    constr:    0.0000
     atom:   11    charge:    0.4917    magn:   -0.0011    constr:    0.0000
     atom:   12    charge:    0.4907    magn:    0.0001    constr:    0.0000
     atom:   13    charge:    6.4537    magn:    0.3592    constr:    0.0000

     total cpu time spent up to now is       38.8 secs

     The total energy is the sum of the following terms:

     one-electron contribution =    -689.43846141 Ry
     hartree contribution      =     348.98296561 Ry
     xc contribution           =     -30.79260582 Ry
     ewald contribution        =     268.46058250 Ry

     total energy              =    -102.77515566 Ry
     Harris-Foulkes estimate   =    -102.77515721 Ry
     estimated scf accuracy    <       0.00000539 Ry

     total magnetization       =     1.00 Bohr mag/cell
     absolute magnetization    =     1.21 Bohr mag/cell

     iteration # 11     ecut=    90.00 Ry     beta=0.70
     Davidson diagonalization with overlap
     ethr =  1.46E-08,  avg # of iterations =  2.5
 
     Magnetic moment per site:
     atom:    1    charge:    0.8375    magn:    0.0456    constr:    0.0000
     atom:    2    charge:    0.8377    magn:    0.0457    constr:    0.0000
     atom:    3    charge:    0.8432    magn:   -0.0092    constr:    0.0000
     atom:    4    charge:    0.8404    magn:    0.0250    constr:    0.0000
     atom:    5    charge:    0.8406    magn:    0.0251    constr:    0.0000
     atom:    6    charge:    0.8432    magn:   -0.0092    constr:    0.0000
     atom:    7    charge:    0.4902    magn:   -0.0018    constr:    0.0000
     atom:    8    charge:    0.4896    magn:   -0.0018    constr:    0.0000
     atom:    9    charge:    0.4907    magn:    0.0001    constr:    0.0000
     atom:   10    charge:    0.4924    magn:   -0.0012    constr:    0.0000
     atom:   11    charge:    0.4917    magn:   -0.0012    constr:    0.0000
     atom:   12    charge:    0.4907    magn:    0.0001    constr:    0.0000
     atom:   13    charge:    6.4540    magn:    0.3591    constr:    0.0000

     total cpu time spent up to now is       40.7 secs

     The total energy is the sum of the following terms:

     one-electron contribution =    -689.42595362 Ry
     hartree contribution      =     348.98387861 Ry
     xc contribution           =     -30.79289826 Ry
     ewald contribution        =     268.46058250 Ry

     total energy              =    -102.77515617 Ry
     Harris-Foulkes estimate   =    -102.77515645 Ry
     estimated scf accuracy    <       0.00000157 Ry

     total magnetization       =     1.00 Bohr mag/cell
     absolute magnetization    =     1.21 Bohr mag/cell

     iteration # 12     ecut=    90.00 Ry     beta=0.70
     Davidson diagonalization with overlap
     ethr =  4.25E-09,  avg # of iterations =  4.0
 
     Magnetic moment per site:
     atom:    1    charge:    0.8375    magn:    0.0457    constr:    0.0000
     atom:    2    charge:    0.8377    magn:    0.0457    constr:    0.0000
     atom:    3    charge:    0.8432    magn:   -0.0093    constr:    0.0000
     atom:    4    charge:    0.8403    magn:    0.0250    constr:    0.0000
     atom:    5    charge:    0.8406    magn:    0.0251    constr:    0.0000
     atom:    6    charge:    0.8431    magn:   -0.0093    constr:    0.0000
     atom:    7    charge:    0.4902    magn:   -0.0019    constr:    0.0000
     atom:    8    charge:    0.4896    magn:   -0.0019    constr:    0.0000
     atom:    9    charge:    0.4907    magn:    0.0001    constr:    0.0000
     atom:   10    charge:    0.4924    magn:   -0.0012    constr:    0.0000
     atom:   11    charge:    0.4917    magn:   -0.0012    constr:    0.0000
     atom:   12    charge:    0.4907    magn:    0.0001    constr:    0.0000
     atom:   13    charge:    6.4540    magn:    0.3591    constr:    0.0000

     total cpu time spent up to now is       43.1 secs

     The total energy is the sum of the following terms:

     one-electron contribution =    -689.42737410 Ry
     hartree contribution      =     348.98388514 Ry
     xc contribution           =     -30.79293471 Ry
     ewald contribution        =     268.46058250 Ry

     total energy              =    -102.77515669 Ry
     Harris-Foulkes estimate   =    -102.77515669 Ry
     estimated scf accuracy    <       0.00000011 Ry

     total magnetization       =     1.00 Bohr mag/cell
     absolute magnetization    =     1.21 Bohr mag/cell

     iteration # 13     ecut=    90.00 Ry     beta=0.70
     Davidson diagonalization with overlap
     ethr =  3.09E-10,  avg # of iterations =  4.0
 
     Magnetic moment per site:
     atom:    1    charge:    0.8375    magn:    0.0457    constr:    0.0000
     atom:    2    charge:    0.8377    magn:    0.0458    constr:    0.0000
     atom:    3    charge:    0.8432    magn:   -0.0093    constr:    0.0000
     atom:    4    charge:    0.8403    magn:    0.0250    constr:    0.0000
     atom:    5    charge:    0.8406    magn:    0.0251    constr:    0.0000
     atom:    6    charge:    0.8432    magn:   -0.0094    constr:    0.0000
     atom:    7    charge:    0.4902    magn:   -0.0019    constr:    0.0000
     atom:    8    charge:    0.4896    magn:   -0.0019    constr:    0.0000
     atom:    9    charge:    0.4907    magn:    0.0001    constr:    0.0000
     atom:   10    charge:    0.4924    magn:   -0.0012    constr:    0.0000
     atom:   11    charge:    0.4917    magn:   -0.0012    constr:    0.0000
     atom:   12    charge:    0.4907    magn:    0.0001    constr:    0.0000
     atom:   13    charge:    6.4540    magn:    0.3591    constr:    0.0000

     total cpu time spent up to now is       45.8 secs

     The total energy is the sum of the following terms:

     one-electron contribution =    -689.42669634 Ry
     hartree contribution      =     348.98399250 Ry
     xc contribution           =     -30.79295390 Ry
     ewald contribution        =     268.46058250 Ry

     total energy              =    -102.77515679 Ry
     Harris-Foulkes estimate   =    -102.77515679 Ry
     estimated scf accuracy    <       0.00000005 Ry

     total magnetization       =     1.00 Bohr mag/cell
     absolute magnetization    =     1.21 Bohr mag/cell

     iteration # 14     ecut=    90.00 Ry     beta=0.70
     Davidson diagonalization with overlap
     ethr =  1.34E-10,  avg # of iterations =  4.0
 
     Magnetic moment per site:
     atom:    1    charge:    0.8375    magn:    0.0457    constr:    0.0000
     atom:    2    charge:    0.8377    magn:    0.0458    constr:    0.0000
     atom:    3    charge:    0.8431    magn:   -0.0094    constr:    0.0000
     atom:    4    charge:    0.8403    magn:    0.0251    constr:    0.0000
     atom:    5    charge:    0.8406    magn:    0.0251    constr:    0.0000
     atom:    6    charge:    0.8432    magn:   -0.0094    constr:    0.0000
     atom:    7    charge:    0.4902    magn:   -0.0019    constr:    0.0000
     atom:    8    charge:    0.4896    magn:   -0.0019    constr:    0.0000
     atom:    9    charge:    0.4907    magn:    0.0001    constr:    0.0000
     atom:   10    charge:    0.4924    magn:   -0.0012    constr:    0.0000
     atom:   11    charge:    0.4917    magn:   -0.0012    constr:    0.0000
     atom:   12    charge:    0.4907    magn:    0.0001    constr:    0.0000
     atom:   13    charge:    6.4540    magn:    0.3591    constr:    0.0000

     total cpu time spent up to now is       48.2 secs

     The total energy is the sum of the following terms:

     one-electron contribution =    -689.42647157 Ry
     hartree contribution      =     348.98387843 Ry
     xc contribution           =     -30.79293683 Ry
     ewald contribution        =     268.46058250 Ry

     total energy              =    -102.77515680 Ry
     Harris-Foulkes estimate   =    -102.77515680 Ry
     estimated scf accuracy    <          8.1E-09 Ry

     total magnetization       =     1.00 Bohr mag/cell
     absolute magnetization    =     1.21 Bohr mag/cell

     iteration # 15     ecut=    90.00 Ry     beta=0.70
     Davidson diagonalization with overlap
     ethr =  2.20E-11,  avg # of iterations =  3.5
 
     Magnetic moment per site:
     atom:    1    charge:    0.8375    magn:    0.0457    constr:    0.0000
     atom:    2    charge:    0.8377    magn:    0.0458    constr:    0.0000
     atom:    3    charge:    0.8431    magn:   -0.0094    constr:    0.0000
     atom:    4    charge:    0.8403    magn:    0.0251    constr:    0.0000
     atom:    5    charge:    0.8406    magn:    0.0251    constr:    0.0000
     atom:    6    charge:    0.8432    magn:   -0.0094    constr:    0.0000
     atom:    7    charge:    0.4902    magn:   -0.0019    constr:    0.0000
     atom:    8    charge:    0.4896    magn:   -0.0019    constr:    0.0000
     atom:    9    charge:    0.4907    magn:    0.0001    constr:    0.0000
     atom:   10    charge:    0.4924    magn:   -0.0012    constr:    0.0000
     atom:   11    charge:    0.4917    magn:   -0.0012    constr:    0.0000
     atom:   12    charge:    0.4907    magn:    0.0001    constr:    0.0000
     atom:   13    charge:    6.4540    magn:    0.3591    constr:    0.0000

     total cpu time spent up to now is       50.6 secs

     The total energy is the sum of the following terms:

     one-electron contribution =    -689.42652028 Ry
     hartree contribution      =     348.98384165 Ry
     xc contribution           =     -30.79293795 Ry
     ewald contribution        =     268.46058250 Ry

     total energy              =    -102.77515681 Ry
     Harris-Foulkes estimate   =    -102.77515681 Ry
     estimated scf accuracy    <          1.1E-09 Ry

     total magnetization       =     1.00 Bohr mag/cell
     absolute magnetization    =     1.21 Bohr mag/cell

     iteration # 16     ecut=    90.00 Ry     beta=0.70
     Davidson diagonalization with overlap
     ethr =  2.91E-12,  avg # of iterations =  4.5
 
     Magnetic moment per site:
     atom:    1    charge:    0.8375    magn:    0.0457    constr:    0.0000
     atom:    2    charge:    0.8377    magn:    0.0458    constr:    0.0000
     atom:    3    charge:    0.8431    magn:   -0.0094    constr:    0.0000
     atom:    4    charge:    0.8403    magn:    0.0251    constr:    0.0000
     atom:    5    charge:    0.8406    magn:    0.0251    constr:    0.0000
     atom:    6    charge:    0.8431    magn:   -0.0094    constr:    0.0000
     atom:    7    charge:    0.4902    magn:   -0.0019    constr:    0.0000
     atom:    8    charge:    0.4896    magn:   -0.0019    constr:    0.0000
     atom:    9    charge:    0.4907    magn:    0.0001    constr:    0.0000
     atom:   10    charge:    0.4924    magn:   -0.0012    constr:    0.0000
     atom:   11    charge:    0.4917    magn:   -0.0012    constr:    0.0000
     atom:   12    charge:    0.4907    magn:    0.0001    constr:    0.0000
     atom:   13    charge:    6.4540    magn:    0.3591    constr:    0.0000

     total cpu time spent up to now is       53.4 secs

     The total energy is the sum of the following terms:

     one-electron contribution =    -689.42657922 Ry
     hartree contribution      =     348.98380361 Ry
     xc contribution           =     -30.79293456 Ry
     ewald contribution        =     268.46058250 Ry

     total energy              =    -102.77515681 Ry
     Harris-Foulkes estimate   =    -102.77515681 Ry
     estimated scf accuracy    <          1.8E-10 Ry

     total magnetization       =     1.00 Bohr mag/cell
     absolute magnetization    =     1.21 Bohr mag/cell

     iteration # 17     ecut=    90.00 Ry     beta=0.70
     Davidson diagonalization with overlap
     ethr =  4.88E-13,  avg # of iterations =  4.0
 
     Magnetic moment per site:
     atom:    1    charge:    0.8375    magn:    0.0457    constr:    0.0000
     atom:    2    charge:    0.8377    magn:    0.0458    constr:    0.0000
     atom:    3    charge:    0.8431    magn:   -0.0094    constr:    0.0000
     atom:    4    charge:    0.8403    magn:    0.0251    constr:    0.0000
     atom:    5    charge:    0.8406    magn:    0.0251    constr:    0.0000
     atom:    6    charge:    0.8431    magn:   -0.0094    constr:    0.0000
     atom:    7    charge:    0.4902    magn:   -0.0019    constr:    0.0000
     atom:    8    charge:    0.4896    magn:   -0.0019    constr:    0.0000
     atom:    9    charge:    0.4907    magn:    0.0001    constr:    0.0000
     atom:   10    charge:    0.4924    magn:   -0.0012    constr:    0.0000
     atom:   11    charge:    0.4917    magn:   -0.0012    constr:    0.0000
     atom:   12    charge:    0.4907    magn:    0.0001    constr:    0.0000
     atom:   13    charge:    6.4540    magn:    0.3591    constr:    0.0000

     total cpu time spent up to now is       56.1 secs

     The total energy is the sum of the following terms:

     one-electron contribution =    -689.42660400 Ry
     hartree contribution      =     348.98380403 Ry
     xc contribution           =     -30.79293525 Ry
     ewald contribution        =     268.46058250 Ry

     total energy              =    -102.77515681 Ry
     Harris-Foulkes estimate   =    -102.77515681 Ry
     estimated scf accuracy    <          3.6E-11 Ry

     total magnetization       =     1.00 Bohr mag/cell
     absolute magnetization    =     1.21 Bohr mag/cell

     iteration # 18     ecut=    90.00 Ry     beta=0.70
     Davidson diagonalization with overlap
     ethr =  1.00E-13,  avg # of iterations =  4.5
 
     Magnetic moment per site:
     atom:    1    charge:    0.8375    magn:    0.0457    constr:    0.0000
     atom:    2    charge:    0.8377    magn:    0.0458    constr:    0.0000
     atom:    3    charge:    0.8431    magn:   -0.0094    constr:    0.0000
     atom:    4    charge:    0.8403    magn:    0.0251    constr:    0.0000
     atom:    5    charge:    0.8406    magn:    0.0251    constr:    0.0000
     atom:    6    charge:    0.8431    magn:   -0.0094    constr:    0.0000
     atom:    7    charge:    0.4902    magn:   -0.0019    constr:    0.0000
     atom:    8    charge:    0.4896    magn:   -0.0019    constr:    0.0000
     atom:    9    charge:    0.4907    magn:    0.0001    constr:    0.0000
     atom:   10    charge:    0.4924    magn:   -0.0012    constr:    0.0000
     atom:   11    charge:    0.4917    magn:   -0.0012    constr:    0.0000
     atom:   12    charge:    0.4907    magn:    0.0001    constr:    0.0000
     atom:   13    charge:    6.4540    magn:    0.3591    constr:    0.0000

     total cpu time spent up to now is       58.8 secs

     The total energy is the sum of the following terms:

     one-electron contribution =    -689.42660707 Ry
     hartree contribution      =     348.98380361 Ry
     xc contribution           =     -30.79293530 Ry
     ewald contribution        =     268.46058250 Ry

     total energy              =    -102.77515681 Ry
     Harris-Foulkes estimate   =    -102.77515681 Ry
     estimated scf accuracy    <          8.5E-12 Ry

     total magnetization       =     1.00 Bohr mag/cell
     absolute magnetization    =     1.21 Bohr mag/cell

     iteration # 19     ecut=    90.00 Ry     beta=0.70
     Davidson diagonalization with overlap
     ethr =  1.00E-13,  avg # of iterations =  3.5
 
     Magnetic moment per site:
     atom:    1    charge:    0.8375    magn:    0.0457    constr:    0.0000
     atom:    2    charge:    0.8377    magn:    0.0458    constr:    0.0000
     atom:    3    charge:    0.8431    magn:   -0.0094    constr:    0.0000
     atom:    4    charge:    0.8403    magn:    0.0251    constr:    0.0000
     atom:    5    charge:    0.8406    magn:    0.0251    constr:    0.0000
     atom:    6    charge:    0.8431    magn:   -0.0094    constr:    0.0000
     atom:    7    charge:    0.4902    magn:   -0.0019    constr:    0.0000
     atom:    8    charge:    0.4896    magn:   -0.0019    constr:    0.0000
     atom:    9    charge:    0.4907    magn:    0.0001    constr:    0.0000
     atom:   10    charge:    0.4924    magn:   -0.0012    constr:    0.0000
     atom:   11    charge:    0.4917    magn:   -0.0012    constr:    0.0000
     atom:   12    charge:    0.4907    magn:    0.0001    constr:    0.0000
     atom:   13    charge:    6.4540    magn:    0.3590    constr:    0.0000

     total cpu time spent up to now is       60.8 secs

     The total energy is the sum of the following terms:

     one-electron contribution =    -689.42660882 Ry
     hartree contribution      =     348.98380274 Ry
     xc contribution           =     -30.79293502 Ry
     ewald contribution        =     268.46058250 Ry

     total energy              =    -102.77515681 Ry
     Harris-Foulkes estimate   =    -102.77515681 Ry
     estimated scf accuracy    <          5.5E-12 Ry

     total magnetization       =     1.00 Bohr mag/cell
     absolute magnetization    =     1.21 Bohr mag/cell

     iteration # 20     ecut=    90.00 Ry     beta=0.70
     Davidson diagonalization with overlap
     ethr =  1.00E-13,  avg # of iterations =  2.0
 
     Magnetic moment per site:
     atom:    1    charge:    0.8375    magn:    0.0457    constr:    0.0000
     atom:    2    charge:    0.8377    magn:    0.0458    constr:    0.0000
     atom:    3    charge:    0.8431    magn:   -0.0094    constr:    0.0000
     atom:    4    charge:    0.8403    magn:    0.0251    constr:    0.0000
     atom:    5    charge:    0.8406    magn:    0.0251    constr:    0.0000
     atom:    6    charge:    0.8431    magn:   -0.0094    constr:    0.0000
     atom:    7    charge:    0.4902    magn:   -0.0019    constr:    0.0000
     atom:    8    charge:    0.4896    magn:   -0.0019    constr:    0.0000
     atom:    9    charge:    0.4907    magn:    0.0001    constr:    0.0000
     atom:   10    charge:    0.4924    magn:   -0.0012    constr:    0.0000
     atom:   11    charge:    0.4917    magn:   -0.0012    constr:    0.0000
     atom:   12    charge:    0.4907    magn:    0.0001    constr:    0.0000
     atom:   13    charge:    6.4540    magn:    0.3590    constr:    0.0000

     total cpu time spent up to now is       62.6 secs

     The total energy is the sum of the following terms:

     one-electron contribution =    -689.42660765 Ry
     hartree contribution      =     348.98380191 Ry
     xc contribution           =     -30.79293495 Ry
     ewald contribution        =     268.46058250 Ry

     total energy              =    -102.77515681 Ry
     Harris-Foulkes estimate   =    -102.77515681 Ry
     estimated scf accuracy    <          2.4E-12 Ry

     total magnetization       =     1.00 Bohr mag/cell
     absolute magnetization    =     1.21 Bohr mag/cell

     iteration # 21     ecut=    90.00 Ry     beta=0.70
     Davidson diagonalization with overlap
     ethr =  1.00E-13,  avg # of iterations =  2.0
 
     Magnetic moment per site:
     atom:    1    charge:    0.8375    magn:    0.0457    constr:    0.0000
     atom:    2    charge:    0.8377    magn:    0.0458    constr:    0.0000
     atom:    3    charge:    0.8431    magn:   -0.0094    constr:    0.0000
     atom:    4    charge:    0.8403    magn:    0.0251    constr:    0.0000
     atom:    5    charge:    0.8406    magn:    0.0251    constr:    0.0000
     atom:    6    charge:    0.8431    magn:   -0.0094    constr:    0.0000
     atom:    7    charge:    0.4902    magn:   -0.0019    constr:    0.0000
     atom:    8    charge:    0.4896    magn:   -0.0019    constr:    0.0000
     atom:    9    charge:    0.4907    magn:    0.0001    constr:    0.0000
     atom:   10    charge:    0.4924    magn:   -0.0012    constr:    0.0000
     atom:   11    charge:    0.4917    magn:   -0.0012    constr:    0.0000
     atom:   12    charge:    0.4907    magn:    0.0001    constr:    0.0000
     atom:   13    charge:    6.4540    magn:    0.3590    constr:    0.0000

     total cpu time spent up to now is       64.3 secs

     End of self-consistent calculation

 ------ SPIN UP ------------


          k = 0.0000 0.0000 0.0000 (238961 PWs)   bands (ev):

   -21.2180 -18.6208 -18.4049 -18.2138 -14.7092 -14.6996 -12.6879 -10.9400
   -10.8867 -10.1590  -9.9373  -9.2067  -8.0808  -8.0777  -7.2159  -6.6123
    -6.4445  -6.2390  -5.9709

     occupation numbers 
     1.0000   1.0000   1.0000   1.0000   1.0000   1.0000   1.0000   1.0000
     1.0000   1.0000   1.0000   1.0000   1.0000   1.0000   1.0000   1.0000
     1.0000   1.0000   1.0000

 ------ SPIN DOWN ----------


          k = 0.0000 0.0000 0.0000 (238961 PWs)   bands (ev):

   -21.0610 -18.3281 -18.1683 -18.0231 -14.6184 -14.5738 -12.6531 -10.8737
   -10.8203 -10.0902  -9.9308  -8.8064  -8.0518  -8.0310  -6.5590  -6.4809
    -6.2966  -5.8468  -5.4754

     occupation numbers 
     1.0000   1.0000   1.0000   1.0000   1.0000   1.0000   1.0000   1.0000
     1.0000   1.0000   1.0000   1.0000   1.0000   1.0000   1.0000   1.0000
     1.0000   1.0000   0.0000

     highest occupied level (ev):    -5.8468

     The total energy is the sum of the following terms:

     one-electron contribution =    -689.42660734 Ry
     hartree contribution      =     348.98380320 Ry
     xc contribution           =     -30.79293516 Ry
     ewald contribution        =     268.46058250 Ry

!    total energy              =    -102.77515681 Ry
     Harris-Foulkes estimate   =    -102.77515681 Ry
     estimated scf accuracy    <          5.1E-13 Ry

     The total energy is the sum of the following terms:

     one-electron contribution =    -689.42660734 Ry
     hartree contribution      =     348.98380320 Ry
     xc contribution           =     -30.79293516 Ry
     ewald contribution        =     268.46058250 Ry

     total magnetization       =     1.00 Bohr mag/cell
     absolute magnetization    =     1.21 Bohr mag/cell

     convergence has been achieved in  21 iterations
 
     Using Hirshfeld
        Amplitude [Ry a.u.] :  1.1753E-01
        Acceptor Fragment start :          13
        Acceptor Fragment end   :          13
        Donor Fragment start :           1
        Donor Fragment end   :          12
 
 
     Using Hirshfeld
        Amplitude [Ry a.u.] :  1.1753E-01
        Acceptor Fragment start :          13
        Acceptor Fragment end   :          13
        Donor Fragment start :           1
        Donor Fragment end   :          12
 
     E field correction              : -0.2585656981480724E+01 Ry    
 
     Donor charge                    :      0.6587820692929895 e     
     Acceptor charge                 :     -0.3412436136754264 e     
     Difference of charges           :      1.0000256829684169 e     
 
     epcdft_thr                      :  0.1000000000000000E-04 e     
     Surplus(+)/deficit(-) charge    :  0.2568296841687356E-04 e     
 
     -----------------------------------------------
 
                      SCF converged but...
 
     electron localization condition NOT satisfied
     restarting scf with different applied potential
 
     New field Amp                   :  0.1165300000000000E+00 Ry    
     charge density from previous step
 
     Using Hirshfeld
        Amplitude [Ry a.u.] :  1.1653E-01
        Acceptor Fragment start :          13
        Acceptor Fragment end   :          13
        Donor Fragment start :           1
        Donor Fragment end   :          12
 

     total cpu time spent up to now is       71.7 secs

     per-process dynamical memory:    69.8 Mb

     Self-consistent Calculation

     iteration #  1     ecut=    90.00 Ry     beta=0.70
     Davidson diagonalization with overlap
     ethr =  1.00E-13,  avg # of iterations = 16.5
 
     Magnetic moment per site:
     atom:    1    charge:    0.8379    magn:    0.0454    constr:    0.0000
     atom:    2    charge:    0.8381    magn:    0.0455    constr:    0.0000
     atom:    3    charge:    0.8431    magn:   -0.0094    constr:    0.0000
     atom:    4    charge:    0.8407    magn:    0.0248    constr:    0.0000
     atom:    5    charge:    0.8409    magn:    0.0248    constr:    0.0000
     atom:    6    charge:    0.8431    magn:   -0.0094    constr:    0.0000
     atom:    7    charge:    0.4902    magn:   -0.0019    constr:    0.0000
     atom:    8    charge:    0.4896    magn:   -0.0019    constr:    0.0000
     atom:    9    charge:    0.4907    magn:    0.0001    constr:    0.0000
     atom:   10    charge:    0.4924    magn:   -0.0012    constr:    0.0000
     atom:   11    charge:    0.4917    magn:   -0.0012    constr:    0.0000
     atom:   12    charge:    0.4907    magn:    0.0001    constr:    0.0000
     atom:   13    charge:    6.4472    magn:    0.3654    constr:    0.0000

     total cpu time spent up to now is       78.2 secs

     The total energy is the sum of the following terms:

     one-electron contribution =    -689.48492216 Ry
     hartree contribution      =     349.00881320 Ry
     xc contribution           =     -30.79250540 Ry
     ewald contribution        =     268.46058250 Ry

     total energy              =    -102.79711752 Ry
     Harris-Foulkes estimate   =    -102.79716779 Ry
     estimated scf accuracy    <       0.00007042 Ry

     total magnetization       =     1.00 Bohr mag/cell
     absolute magnetization    =     1.21 Bohr mag/cell

     iteration #  2     ecut=    90.00 Ry     beta=0.70
     Davidson diagonalization with overlap
     ethr =  1.90E-07,  avg # of iterations =  3.0
 
     Magnetic moment per site:
     atom:    1    charge:    0.8376    magn:    0.0456    constr:    0.0000
     atom:    2    charge:    0.8378    magn:    0.0457    constr:    0.0000
     atom:    3    charge:    0.8432    magn:   -0.0094    constr:    0.0000
     atom:    4    charge:    0.8403    magn:    0.0250    constr:    0.0000
     atom:    5    charge:    0.8405    magn:    0.0250    constr:    0.0000
     atom:    6    charge:    0.8432    magn:   -0.0094    constr:    0.0000
     atom:    7    charge:    0.4903    magn:   -0.0019    constr:    0.0000
     atom:    8    charge:    0.4896    magn:   -0.0019    constr:    0.0000
     atom:    9    charge:    0.4907    magn:    0.0001    constr:    0.0000
     atom:   10    charge:    0.4924    magn:   -0.0012    constr:    0.0000
     atom:   11    charge:    0.4917    magn:   -0.0012    constr:    0.0000
     atom:   12    charge:    0.4907    magn:    0.0001    constr:    0.0000
     atom:   13    charge:    6.4525    magn:    0.3612    constr:    0.0000

     total cpu time spent up to now is       80.4 secs

     The total energy is the sum of the following terms:

     one-electron contribution =    -689.34145760 Ry
     hartree contribution      =     348.98886541 Ry
     xc contribution           =     -30.79284108 Ry
     ewald contribution        =     268.46058250 Ry

     total energy              =    -102.79706295 Ry
     Harris-Foulkes estimate   =    -102.79727050 Ry
     estimated scf accuracy    <       0.00089288 Ry

     total magnetization       =     1.00 Bohr mag/cell
     absolute magnetization    =     1.21 Bohr mag/cell

     iteration #  3     ecut=    90.00 Ry     beta=0.70
     Davidson diagonalization with overlap
     ethr =  1.90E-07,  avg # of iterations =  3.0
 
     Magnetic moment per site:
     atom:    1    charge:    0.8375    magn:    0.0456    constr:    0.0000
     atom:    2    charge:    0.8377    magn:    0.0457    constr:    0.0000
     atom:    3    charge:    0.8432    magn:   -0.0094    constr:    0.0000
     atom:    4    charge:    0.8403    magn:    0.0249    constr:    0.0000
     atom:    5    charge:    0.8405    magn:    0.0250    constr:    0.0000
     atom:    6    charge:    0.8432    magn:   -0.0094    constr:    0.0000
     atom:    7    charge:    0.4903    magn:   -0.0019    constr:    0.0000
     atom:    8    charge:    0.4896    magn:   -0.0019    constr:    0.0000
     atom:    9    charge:    0.4908    magn:    0.0001    constr:    0.0000
     atom:   10    charge:    0.4924    magn:   -0.0012    constr:    0.0000
     atom:   11    charge:    0.4917    magn:   -0.0012    constr:    0.0000
     atom:   12    charge:    0.4908    magn:    0.0001    constr:    0.0000
     atom:   13    charge:    6.4525    magn:    0.3616    constr:    0.0000

     total cpu time spent up to now is       82.6 secs

     The total energy is the sum of the following terms:

     one-electron contribution =    -689.45385871 Ry
     hartree contribution      =     348.98835649 Ry
     xc contribution           =     -30.79269693 Ry
     ewald contribution        =     268.46058250 Ry

     total energy              =    -102.79715875 Ry
     Harris-Foulkes estimate   =    -102.79715875 Ry
     estimated scf accuracy    <       0.00000017 Ry

     total magnetization       =     1.00 Bohr mag/cell
     absolute magnetization    =     1.21 Bohr mag/cell

     iteration #  4     ecut=    90.00 Ry     beta=0.70
     Davidson diagonalization with overlap
     ethr =  4.46E-10,  avg # of iterations =  6.5
 
     Magnetic moment per site:
     atom:    1    charge:    0.8375    magn:    0.0456    constr:    0.0000
     atom:    2    charge:    0.8377    magn:    0.0457    constr:    0.0000
     atom:    3    charge:    0.8431    magn:   -0.0093    constr:    0.0000
     atom:    4    charge:    0.8403    magn:    0.0249    constr:    0.0000
     atom:    5    charge:    0.8405    magn:    0.0250    constr:    0.0000
     atom:    6    charge:    0.8431    magn:   -0.0094    constr:    0.0000
     atom:    7    charge:    0.4903    magn:   -0.0019    constr:    0.0000
     atom:    8    charge:    0.4896    magn:   -0.0019    constr:    0.0000
     atom:    9    charge:    0.4907    magn:    0.0001    constr:    0.0000
     atom:   10    charge:    0.4924    magn:   -0.0012    constr:    0.0000
     atom:   11    charge:    0.4917    magn:   -0.0012    constr:    0.0000
     atom:   12    charge:    0.4907    magn:    0.0001    constr:    0.0000
     atom:   13    charge:    6.4525    magn:    0.3616    constr:    0.0000

     total cpu time spent up to now is       86.0 secs

     The total energy is the sum of the following terms:

     one-electron contribution =    -689.45909237 Ry
     hartree contribution      =     348.98965452 Ry
     xc contribution           =     -30.79283632 Ry
     ewald contribution        =     268.46058250 Ry

     total energy              =    -102.79715947 Ry
     Harris-Foulkes estimate   =    -102.79715959 Ry
     estimated scf accuracy    <       0.00000056 Ry

     total magnetization       =     1.00 Bohr mag/cell
     absolute magnetization    =     1.21 Bohr mag/cell

     iteration #  5     ecut=    90.00 Ry     beta=0.70
     Davidson diagonalization with overlap
     ethr =  4.46E-10,  avg # of iterations =  2.5
 
     Magnetic moment per site:
     atom:    1    charge:    0.8376    magn:    0.0456    constr:    0.0000
     atom:    2    charge:    0.8378    magn:    0.0456    constr:    0.0000
     atom:    3    charge:    0.8431    magn:   -0.0093    constr:    0.0000
     atom:    4    charge:    0.8404    magn:    0.0249    constr:    0.0000
     atom:    5    charge:    0.8406    magn:    0.0250    constr:    0.0000
     atom:    6    charge:    0.8431    magn:   -0.0094    constr:    0.0000
     atom:    7    charge:    0.4903    magn:   -0.0019    constr:    0.0000
     atom:    8    charge:    0.4896    magn:   -0.0019    constr:    0.0000
     atom:    9    charge:    0.4907    magn:    0.0001    constr:    0.0000
     atom:   10    charge:    0.4924    magn:   -0.0012    constr:    0.0000
     atom:   11    charge:    0.4917    magn:   -0.0012    constr:    0.0000
     atom:   12    charge:    0.4907    magn:    0.0001    constr:    0.0000
     atom:   13    charge:    6.4525    magn:    0.3615    constr:    0.0000

     total cpu time spent up to now is       88.0 secs

     The total energy is the sum of the following terms:

     one-electron contribution =    -689.45670391 Ry
     hartree contribution      =     348.99001347 Ry
     xc contribution           =     -30.79287565 Ry
     ewald contribution        =     268.46058250 Ry

     total energy              =    -102.79715947 Ry
     Harris-Foulkes estimate   =    -102.79715949 Ry
     estimated scf accuracy    <       0.00000013 Ry

     total magnetization       =     1.00 Bohr mag/cell
     absolute magnetization    =     1.21 Bohr mag/cell

     iteration #  6     ecut=    90.00 Ry     beta=0.70
     Davidson diagonalization with overlap
     ethr =  3.42E-10,  avg # of iterations =  1.0
 
     Magnetic moment per site:
     atom:    1    charge:    0.8376    magn:    0.0456    constr:    0.0000
     atom:    2    charge:    0.8378    magn:    0.0456    constr:    0.0000
     atom:    3    charge:    0.8431    magn:   -0.0093    constr:    0.0000
     atom:    4    charge:    0.8404    magn:    0.0249    constr:    0.0000
     atom:    5    charge:    0.8406    magn:    0.0250    constr:    0.0000
     atom:    6    charge:    0.8431    magn:   -0.0094    constr:    0.0000
     atom:    7    charge:    0.4903    magn:   -0.0019    constr:    0.0000
     atom:    8    charge:    0.4896    magn:   -0.0019    constr:    0.0000
     atom:    9    charge:    0.4907    magn:    0.0001    constr:    0.0000
     atom:   10    charge:    0.4924    magn:   -0.0012    constr:    0.0000
     atom:   11    charge:    0.4917    magn:   -0.0012    constr:    0.0000
     atom:   12    charge:    0.4907    magn:    0.0001    constr:    0.0000
     atom:   13    charge:    6.4525    magn:    0.3616    constr:    0.0000

     total cpu time spent up to now is       89.6 secs

     The total energy is the sum of the following terms:

     one-electron contribution =    -689.45567366 Ry
     hartree contribution      =     348.99008373 Ry
     xc contribution           =     -30.79286683 Ry
     ewald contribution        =     268.46058250 Ry

     total energy              =    -102.79715947 Ry
     Harris-Foulkes estimate   =    -102.79715948 Ry
     estimated scf accuracy    <       0.00000002 Ry

     total magnetization       =     1.00 Bohr mag/cell
     absolute magnetization    =     1.21 Bohr mag/cell

     iteration #  7     ecut=    90.00 Ry     beta=0.70
     Davidson diagonalization with overlap
     ethr =  4.87E-11,  avg # of iterations =  4.0
 
     Magnetic moment per site:
     atom:    1    charge:    0.8376    magn:    0.0456    constr:    0.0000
     atom:    2    charge:    0.8378    magn:    0.0456    constr:    0.0000
     atom:    3    charge:    0.8431    magn:   -0.0093    constr:    0.0000
     atom:    4    charge:    0.8404    magn:    0.0249    constr:    0.0000
     atom:    5    charge:    0.8406    magn:    0.0250    constr:    0.0000
     atom:    6    charge:    0.8431    magn:   -0.0093    constr:    0.0000
     atom:    7    charge:    0.4903    magn:   -0.0019    constr:    0.0000
     atom:    8    charge:    0.4896    magn:   -0.0019    constr:    0.0000
     atom:    9    charge:    0.4907    magn:    0.0001    constr:    0.0000
     atom:   10    charge:    0.4924    magn:   -0.0012    constr:    0.0000
     atom:   11    charge:    0.4917    magn:   -0.0012    constr:    0.0000
     atom:   12    charge:    0.4907    magn:    0.0001    constr:    0.0000
     atom:   13    charge:    6.4524    magn:    0.3616    constr:    0.0000

     total cpu time spent up to now is       92.0 secs

     The total energy is the sum of the following terms:

     one-electron contribution =    -689.45504226 Ry
     hartree contribution      =     348.99006384 Ry
     xc contribution           =     -30.79286114 Ry
     ewald contribution        =     268.46058250 Ry

     total energy              =    -102.79715948 Ry
     Harris-Foulkes estimate   =    -102.79715948 Ry
     estimated scf accuracy    <          3.2E-09 Ry

     total magnetization       =     1.00 Bohr mag/cell
     absolute magnetization    =     1.21 Bohr mag/cell

     iteration #  8     ecut=    90.00 Ry     beta=0.70
     Davidson diagonalization with overlap
     ethr =  8.70E-12,  avg # of iterations =  3.0
 
     Magnetic moment per site:
     atom:    1    charge:    0.8376    magn:    0.0456    constr:    0.0000
     atom:    2    charge:    0.8378    magn:    0.0456    constr:    0.0000
     atom:    3    charge:    0.8431    magn:   -0.0093    constr:    0.0000
     atom:    4    charge:    0.8404    magn:    0.0249    constr:    0.0000
     atom:    5    charge:    0.8406    magn:    0.0250    constr:    0.0000
     atom:    6    charge:    0.8431    magn:   -0.0093    constr:    0.0000
     atom:    7    charge:    0.4903    magn:   -0.0019    constr:    0.0000
     atom:    8    charge:    0.4896    magn:   -0.0019    constr:    0.0000
     atom:    9    charge:    0.4907    magn:    0.0001    constr:    0.0000
     atom:   10    charge:    0.4924    magn:   -0.0012    constr:    0.0000
     atom:   11    charge:    0.4917    magn:   -0.0012    constr:    0.0000
     atom:   12    charge:    0.4907    magn:    0.0001    constr:    0.0000
     atom:   13    charge:    6.4524    magn:    0.3616    constr:    0.0000

     total cpu time spent up to now is       94.2 secs

     The total energy is the sum of the following terms:

     one-electron contribution =    -689.45498690 Ry
     hartree contribution      =     348.99007519 Ry
     xc contribution           =     -30.79286218 Ry
     ewald contribution        =     268.46058250 Ry

     total energy              =    -102.79715948 Ry
     Harris-Foulkes estimate   =    -102.79715948 Ry
     estimated scf accuracy    <          2.2E-10 Ry

     total magnetization       =     1.00 Bohr mag/cell
     absolute magnetization    =     1.21 Bohr mag/cell

     iteration #  9     ecut=    90.00 Ry     beta=0.70
     Davidson diagonalization with overlap
     ethr =  5.98E-13,  avg # of iterations =  5.0
 
     Magnetic moment per site:
     atom:    1    charge:    0.8376    magn:    0.0456    constr:    0.0000
     atom:    2    charge:    0.8378    magn:    0.0456    constr:    0.0000
     atom:    3    charge:    0.8431    magn:   -0.0093    constr:    0.0000
     atom:    4    charge:    0.8404    magn:    0.0249    constr:    0.0000
     atom:    5    charge:    0.8406    magn:    0.0250    constr:    0.0000
     atom:    6    charge:    0.8431    magn:   -0.0093    constr:    0.0000
     atom:    7    charge:    0.4903    magn:   -0.0019    constr:    0.0000
     atom:    8    charge:    0.4896    magn:   -0.0019    constr:    0.0000
     atom:    9    charge:    0.4907    magn:    0.0001    constr:    0.0000
     atom:   10    charge:    0.4924    magn:   -0.0012    constr:    0.0000
     atom:   11    charge:    0.4917    magn:   -0.0012    constr:    0.0000
     atom:   12    charge:    0.4907    magn:    0.0001    constr:    0.0000
     atom:   13    charge:    6.4524    magn:    0.3616    constr:    0.0000

     total cpu time spent up to now is       97.1 secs

     The total energy is the sum of the following terms:

     one-electron contribution =    -689.45494182 Ry
     hartree contribution      =     348.99006240 Ry
     xc contribution           =     -30.79286054 Ry
     ewald contribution        =     268.46058250 Ry

     total energy              =    -102.79715948 Ry
     Harris-Foulkes estimate   =    -102.79715948 Ry
     estimated scf accuracy    <          9.8E-11 Ry

     total magnetization       =     1.00 Bohr mag/cell
     absolute magnetization    =     1.21 Bohr mag/cell

     iteration # 10     ecut=    90.00 Ry     beta=0.70
     Davidson diagonalization with overlap
     ethr =  2.64E-13,  avg # of iterations =  3.0
 
     Magnetic moment per site:
     atom:    1    charge:    0.8376    magn:    0.0456    constr:    0.0000
     atom:    2    charge:    0.8378    magn:    0.0456    constr:    0.0000
     atom:    3    charge:    0.8431    magn:   -0.0093    constr:    0.0000
     atom:    4    charge:    0.8404    magn:    0.0249    constr:    0.0000
     atom:    5    charge:    0.8406    magn:    0.0250    constr:    0.0000
     atom:    6    charge:    0.8431    magn:   -0.0093    constr:    0.0000
     atom:    7    charge:    0.4903    magn:   -0.0019    constr:    0.0000
     atom:    8    charge:    0.4896    magn:   -0.0019    constr:    0.0000
     atom:    9    charge:    0.4907    magn:    0.0001    constr:    0.0000
     atom:   10    charge:    0.4924    magn:   -0.0012    constr:    0.0000
     atom:   11    charge:    0.4917    magn:   -0.0012    constr:    0.0000
     atom:   12    charge:    0.4907    magn:    0.0001    constr:    0.0000
     atom:   13    charge:    6.4524    magn:    0.3616    constr:    0.0000

     total cpu time spent up to now is       99.3 secs

     The total energy is the sum of the following terms:

     one-electron contribution =    -689.45498006 Ry
     hartree contribution      =     348.99006578 Ry
     xc contribution           =     -30.79286052 Ry
     ewald contribution        =     268.46058250 Ry

     total energy              =    -102.79715948 Ry
     Harris-Foulkes estimate   =    -102.79715948 Ry
     estimated scf accuracy    <          4.4E-11 Ry

     total magnetization       =     1.00 Bohr mag/cell
     absolute magnetization    =     1.21 Bohr mag/cell

     iteration # 11     ecut=    90.00 Ry     beta=0.70
     Davidson diagonalization with overlap
     ethr =  1.19E-13,  avg # of iterations =  3.0
 
     Magnetic moment per site:
     atom:    1    charge:    0.8376    magn:    0.0456    constr:    0.0000
     atom:    2    charge:    0.8378    magn:    0.0456    constr:    0.0000
     atom:    3    charge:    0.8431    magn:   -0.0093    constr:    0.0000
     atom:    4    charge:    0.8404    magn:    0.0249    constr:    0.0000
     atom:    5    charge:    0.8406    magn:    0.0250    constr:    0.0000
     atom:    6    charge:    0.8431    magn:   -0.0093    constr:    0.0000
     atom:    7    charge:    0.4903    magn:   -0.0019    constr:    0.0000
     atom:    8    charge:    0.4896    magn:   -0.0019    constr:    0.0000
     atom:    9    charge:    0.4907    magn:    0.0001    constr:    0.0000
     atom:   10    charge:    0.4924    magn:   -0.0012    constr:    0.0000
     atom:   11    charge:    0.4917    magn:   -0.0012    constr:    0.0000
     atom:   12    charge:    0.4907    magn:    0.0001    constr:    0.0000
     atom:   13    charge:    6.4524    magn:    0.3616    constr:    0.0000

     total cpu time spent up to now is      101.3 secs

     The total energy is the sum of the following terms:

     one-electron contribution =    -689.45496977 Ry
     hartree contribution      =     348.99007386 Ry
     xc contribution           =     -30.79286118 Ry
     ewald contribution        =     268.46058250 Ry

     total energy              =    -102.79715948 Ry
     Harris-Foulkes estimate   =    -102.79715948 Ry
     estimated scf accuracy    <          9.5E-12 Ry

     total magnetization       =     1.00 Bohr mag/cell
     absolute magnetization    =     1.21 Bohr mag/cell

     iteration # 12     ecut=    90.00 Ry     beta=0.70
     Davidson diagonalization with overlap
     ethr =  1.00E-13,  avg # of iterations =  1.5
 
     Magnetic moment per site:
     atom:    1    charge:    0.8376    magn:    0.0456    constr:    0.0000
     atom:    2    charge:    0.8378    magn:    0.0456    constr:    0.0000
     atom:    3    charge:    0.8431    magn:   -0.0093    constr:    0.0000
     atom:    4    charge:    0.8404    magn:    0.0249    constr:    0.0000
     atom:    5    charge:    0.8406    magn:    0.0250    constr:    0.0000
     atom:    6    charge:    0.8431    magn:   -0.0093    constr:    0.0000
     atom:    7    charge:    0.4903    magn:   -0.0019    constr:    0.0000
     atom:    8    charge:    0.4896    magn:   -0.0019    constr:    0.0000
     atom:    9    charge:    0.4907    magn:    0.0001    constr:    0.0000
     atom:   10    charge:    0.4924    magn:   -0.0012    constr:    0.0000
     atom:   11    charge:    0.4917    magn:   -0.0012    constr:    0.0000
     atom:   12    charge:    0.4907    magn:    0.0001    constr:    0.0000
     atom:   13    charge:    6.4524    magn:    0.3616    constr:    0.0000

     total cpu time spent up to now is      103.0 secs

     End of self-consistent calculation

 ------ SPIN UP ------------


          k = 0.0000 0.0000 0.0000 (238961 PWs)   bands (ev):

   -21.2233 -18.6261 -18.4106 -18.2202 -14.7153 -14.7057 -12.6945 -10.9469
   -10.8923 -10.1650  -9.9444  -9.2122  -8.0872  -8.0842  -7.2223  -6.6162
    -6.4477  -6.2443  -5.9767

     occupation numbers 
     1.0000   1.0000   1.0000   1.0000   1.0000   1.0000   1.0000   1.0000
     1.0000   1.0000   1.0000   1.0000   1.0000   1.0000   1.0000   1.0000
     1.0000   1.0000   1.0000

 ------ SPIN DOWN ----------


          k = 0.0000 0.0000 0.0000 (238961 PWs)   bands (ev):

   -21.0671 -18.3338 -18.1750 -18.0265 -14.6249 -14.5805 -12.6598 -10.8809
   -10.8262 -10.0965  -9.9379  -8.8135  -8.0584  -8.0377  -6.5628  -6.4842
    -6.2988  -5.8528  -5.4805

     occupation numbers 
     1.0000   1.0000   1.0000   1.0000   1.0000   1.0000   1.0000   1.0000
     1.0000   1.0000   1.0000   1.0000   1.0000   1.0000   1.0000   1.0000
     1.0000   1.0000   0.0000

     highest occupied level (ev):    -5.8528

     The total energy is the sum of the following terms:

     one-electron contribution =    -689.45495841 Ry
     hartree contribution      =     348.99007805 Ry
     xc contribution           =     -30.79286161 Ry
     ewald contribution        =     268.46058250 Ry

!    total energy              =    -102.79715948 Ry
     Harris-Foulkes estimate   =    -102.79715948 Ry
     estimated scf accuracy    <          3.6E-13 Ry

     The total energy is the sum of the following terms:

     one-electron contribution =    -689.45495841 Ry
     hartree contribution      =     348.99007805 Ry
     xc contribution           =     -30.79286161 Ry
     ewald contribution        =     268.46058250 Ry

     total magnetization       =     1.00 Bohr mag/cell
     absolute magnetization    =     1.21 Bohr mag/cell

     convergence has been achieved in  12 iterations
 
     Using Hirshfeld
        Amplitude [Ry a.u.] :  1.1653E-01
        Acceptor Fragment start :          13
        Acceptor Fragment end   :          13
        Donor Fragment start :           1
        Donor Fragment end   :          12
 
 
     Using Hirshfeld
        Amplitude [Ry a.u.] :  1.1653E-01
        Acceptor Fragment start :          13
        Acceptor Fragment end   :          13
        Donor Fragment start :           1
        Donor Fragment end   :          12
 
     E field correction              : -0.2564284581008253E+01 Ry    
 
     Donor charge                    :      0.6560304164846293 e     
     Acceptor charge                 :     -0.3386097533578711 e     
     Difference of charges           :      0.9946401698425014 e     
 
     epcdft_thr                      :  0.1000000000000000E-04 e     
     Surplus(+)/deficit(-) charge    : -0.5359830157498635E-02 e     
 
     -----------------------------------------------
 
                      SCF converged but...
 
     electron localization condition NOT satisfied
     restarting scf with different applied potential
 
     New field Amp                   :  0.1175252311009524E+00 Ry    
     charge density from previous step
 
     Using Hirshfeld
        Amplitude [Ry a.u.] :  1.1753E-01
        Acceptor Fragment start :          13
        Acceptor Fragment end   :          13
        Donor Fragment start :           1
        Donor Fragment end   :          12
 

     total cpu time spent up to now is      110.3 secs

     per-process dynamical memory:    69.8 Mb

     Self-consistent Calculation

     iteration #  1     ecut=    90.00 Ry     beta=0.70
     Davidson diagonalization with overlap
     ethr =  1.00E-13,  avg # of iterations = 16.5
 
     Magnetic moment per site:
     atom:    1    charge:    0.8372    magn:    0.0459    constr:    0.0000
     atom:    2    charge:    0.8374    magn:    0.0459    constr:    0.0000
     atom:    3    charge:    0.8431    magn:   -0.0093    constr:    0.0000
     atom:    4    charge:    0.8400    magn:    0.0252    constr:    0.0000
     atom:    5    charge:    0.8402    magn:    0.0253    constr:    0.0000
     atom:    6    charge:    0.8431    magn:   -0.0094    constr:    0.0000
     atom:    7    charge:    0.4902    magn:   -0.0019    constr:    0.0000
     atom:    8    charge:    0.4896    magn:   -0.0019    constr:    0.0000
     atom:    9    charge:    0.4907    magn:    0.0001    constr:    0.0000
     atom:   10    charge:    0.4924    magn:   -0.0011    constr:    0.0000
     atom:   11    charge:    0.4917    magn:   -0.0011    constr:    0.0000
     atom:   12    charge:    0.4907    magn:    0.0001    constr:    0.0000
     atom:   13    charge:    6.4592    magn:    0.3553    constr:    0.0000

     total cpu time spent up to now is      117.0 secs

     The total energy is the sum of the following terms:

     one-electron contribution =    -689.39726452 Ry
     hartree contribution      =     348.96548043 Ry
     xc contribution           =     -30.79330067 Ry
     ewald contribution        =     268.46058250 Ry

     total energy              =    -102.77522096 Ry
     Harris-Foulkes estimate   =    -102.77526990 Ry
     estimated scf accuracy    <       0.00006854 Ry

     total magnetization       =     1.00 Bohr mag/cell
     absolute magnetization    =     1.21 Bohr mag/cell

     iteration #  2     ecut=    90.00 Ry     beta=0.70
     Davidson diagonalization with overlap
     ethr =  1.85E-07,  avg # of iterations =  3.0
 
     Magnetic moment per site:
     atom:    1    charge:    0.8375    magn:    0.0457    constr:    0.0000
     atom:    2    charge:    0.8377    magn:    0.0457    constr:    0.0000
     atom:    3    charge:    0.8431    magn:   -0.0093    constr:    0.0000
     atom:    4    charge:    0.8404    magn:    0.0250    constr:    0.0000
     atom:    5    charge:    0.8406    magn:    0.0251    constr:    0.0000
     atom:    6    charge:    0.8431    magn:   -0.0094    constr:    0.0000
     atom:    7    charge:    0.4902    magn:   -0.0019    constr:    0.0000
     atom:    8    charge:    0.4895    magn:   -0.0019    constr:    0.0000
     atom:    9    charge:    0.4907    magn:    0.0001    constr:    0.0000
     atom:   10    charge:    0.4924    magn:   -0.0012    constr:    0.0000
     atom:   11    charge:    0.4917    magn:   -0.0012    constr:    0.0000
     atom:   12    charge:    0.4907    magn:    0.0001    constr:    0.0000
     atom:   13    charge:    6.4539    magn:    0.3595    constr:    0.0000

     total cpu time spent up to now is      119.2 secs

     The total energy is the sum of the following terms:

     one-electron contribution =    -689.54132119 Ry
     hartree contribution      =     348.98527396 Ry
     xc contribution           =     -30.79297248 Ry
     ewald contribution        =     268.46058250 Ry

     total energy              =    -102.77516420 Ry
     Harris-Foulkes estimate   =    -102.77537068 Ry
     estimated scf accuracy    <       0.00089969 Ry

     total magnetization       =     1.00 Bohr mag/cell
     absolute magnetization    =     1.21 Bohr mag/cell

     iteration #  3     ecut=    90.00 Ry     beta=0.70
     Davidson diagonalization with overlap
     ethr =  1.85E-07,  avg # of iterations =  3.0
 
     Magnetic moment per site:
     atom:    1    charge:    0.8376    magn:    0.0457    constr:    0.0000
     atom:    2    charge:    0.8378    magn:    0.0458    constr:    0.0000
     atom:    3    charge:    0.8431    magn:   -0.0094    constr:    0.0000
[...]

     total cpu time spent up to now is      124.9 secs

     The total energy is the sum of the following terms:

     one-electron contribution =    -689.42242879 Ry
     hartree contribution      =     348.98443678 Ry
     xc contribution           =     -30.79297796 Ry
     ewald contribution        =     268.46058250 Ry

     total energy              =    -102.77526171 Ry
     Harris-Foulkes estimate   =    -102.77526184 Ry
     estimated scf accuracy    <       0.00000061 Ry

     total magnetization       =     1.00 Bohr mag/cell
     absolute magnetization    =     1.21 Bohr mag/cell

     iteration #  5     ecut=    90.00 Ry     beta=0.70
     Davidson diagonalization with overlap
     ethr =  6.31E-10,  avg # of iterations =  2.0
 
     Magnetic moment per site:
     atom:    1    charge:    0.8375    magn:    0.0457    constr:    0.0000
     atom:    2    charge:    0.8377    magn:    0.0458    constr:    0.0000
     atom:    3    charge:    0.8432    magn:   -0.0094    constr:    0.0000
     atom:    4    charge:    0.8404    magn:    0.0251    constr:    0.0000
     atom:    5    charge:    0.8406    magn:    0.0251    constr:    0.0000
     atom:    6    charge:    0.8432    magn:   -0.0094    constr:    0.0000
     atom:    7    charge:    0.4902    magn:   -0.0019    constr:    0.0000
     atom:    8    charge:    0.4896    magn:   -0.0019    constr:    0.0000
     atom:    9    charge:    0.4907    magn:    0.0001    constr:    0.0000
     atom:   10    charge:    0.4924    magn:   -0.0012    constr:    0.0000
     atom:   11    charge:    0.4917    magn:   -0.0012    constr:    0.0000
     atom:   12    charge:    0.4907    magn:    0.0001    constr:    0.0000
     atom:   13    charge:    6.4540    magn:    0.3591    constr:    0.0000

     total cpu time spent up to now is      126.7 secs

     The total energy is the sum of the following terms:

     one-electron contribution =    -689.42427888 Ry
     hartree contribution      =     348.98375300 Ry
     xc contribution           =     -30.79291668 Ry
     ewald contribution        =     268.46058250 Ry

     total energy              =    -102.77526170 Ry
     Harris-Foulkes estimate   =    -102.77526173 Ry
     estimated scf accuracy    <       0.00000018 Ry

     total magnetization       =     1.00 Bohr mag/cell
     absolute magnetization    =     1.21 Bohr mag/cell

     iteration #  6     ecut=    90.00 Ry     beta=0.70
     Davidson diagonalization with overlap
     ethr =  4.80E-10,  avg # of iterations =  1.5
 
     Magnetic moment per site:
     atom:    1    charge:    0.8375    magn:    0.0457    constr:    0.0000
     atom:    2    charge:    0.8377    magn:    0.0458    constr:    0.0000
     atom:    3    charge:    0.8432    magn:   -0.0094    constr:    0.0000
     atom:    4    charge:    0.8403    magn:    0.0251    constr:    0.0000
     atom:    5    charge:    0.8405    magn:    0.0251    constr:    0.0000
     atom:    6    charge:    0.8432    magn:   -0.0094    constr:    0.0000
     atom:    7    charge:    0.4902    magn:   -0.0019    constr:    0.0000
     atom:    8    charge:    0.4896    magn:   -0.0019    constr:    0.0000
     atom:    9    charge:    0.4907    magn:    0.0001    constr:    0.0000
     atom:   10    charge:    0.4924    magn:   -0.0012    constr:    0.0000
     atom:   11    charge:    0.4917    magn:   -0.0012    constr:    0.0000
     atom:   12    charge:    0.4907    magn:    0.0001    constr:    0.0000
     atom:   13    charge:    6.4540    magn:    0.3591    constr:    0.0000

     total cpu time spent up to now is      128.4 secs

     The total energy is the sum of the following terms:

     one-electron contribution =    -689.42582481 Ry
     hartree contribution      =     348.98366597 Ry
     xc contribution           =     -30.79290938 Ry
     ewald contribution        =     268.46058250 Ry

     total energy              =    -102.77526171 Ry
     Harris-Foulkes estimate   =    -102.77526171 Ry
     estimated scf accuracy    <       0.00000003 Ry

     total magnetization       =     1.00 Bohr mag/cell
     absolute magnetization    =     1.21 Bohr mag/cell

     iteration #  7     ecut=    90.00 Ry     beta=0.70
     Davidson diagonalization with overlap
     ethr =  7.64E-11,  avg # of iterations =  4.0
 
     Magnetic moment per site:
     atom:    1    charge:    0.8375    magn:    0.0457    constr:    0.0000
     atom:    2    charge:    0.8377    magn:    0.0458    constr:    0.0000
     atom:    3    charge:    0.8431    magn:   -0.0094    constr:    0.0000
     atom:    4    charge:    0.8403    magn:    0.0251    constr:    0.0000
     atom:    5    charge:    0.8406    magn:    0.0251    constr:    0.0000
     atom:    6    charge:    0.8431    magn:   -0.0094    constr:    0.0000
     atom:    7    charge:    0.4902    magn:   -0.0019    constr:    0.0000
     atom:    8    charge:    0.4896    magn:   -0.0019    constr:    0.0000
     atom:    9    charge:    0.4907    magn:    0.0001    constr:    0.0000
     atom:   10    charge:    0.4924    magn:   -0.0012    constr:    0.0000
     atom:   11    charge:    0.4917    magn:   -0.0012    constr:    0.0000
     atom:   12    charge:    0.4907    magn:    0.0001    constr:    0.0000
     atom:   13    charge:    6.4540    magn:    0.3591    constr:    0.0000

     total cpu time spent up to now is      131.0 secs

     The total energy is the sum of the following terms:

     one-electron contribution =    -689.42688215 Ry
     hartree contribution      =     348.98386523 Ry
     xc contribution           =     -30.79293567 Ry
     ewald contribution        =     268.46058250 Ry

     total energy              =    -102.77526172 Ry
     Harris-Foulkes estimate   =    -102.77526172 Ry
     estimated scf accuracy    <          5.8E-09 Ry

     total magnetization       =     1.00 Bohr mag/cell
     absolute magnetization    =     1.21 Bohr mag/cell

     iteration #  8     ecut=    90.00 Ry     beta=0.70
     Davidson diagonalization with overlap
     ethr =  1.58E-11,  avg # of iterations =  3.5
 
     Magnetic moment per site:
     atom:    1    charge:    0.8375    magn:    0.0457    constr:    0.0000
     atom:    2    charge:    0.8377    magn:    0.0458    constr:    0.0000
     atom:    3    charge:    0.8431    magn:   -0.0094    constr:    0.0000
     atom:    4    charge:    0.8403    magn:    0.0251    constr:    0.0000
     atom:    5    charge:    0.8406    magn:    0.0251    constr:    0.0000
     atom:    6    charge:    0.8431    magn:   -0.0094    constr:    0.0000
     atom:    7    charge:    0.4902    magn:   -0.0019    constr:    0.0000
     atom:    8    charge:    0.4896    magn:   -0.0019    constr:    0.0000
     atom:    9    charge:    0.4907    magn:    0.0001    constr:    0.0000
     atom:   10    charge:    0.4924    magn:   -0.0012    constr:    0.0000
     atom:   11    charge:    0.4917    magn:   -0.0012    constr:    0.0000
     atom:   12    charge:    0.4907    magn:    0.0001    constr:    0.0000
     atom:   13    charge:    6.4540    magn:    0.3591    constr:    0.0000

     total cpu time spent up to now is      133.4 secs

     The total energy is the sum of the following terms:

     one-electron contribution =    -689.42666396 Ry
     hartree contribution      =     348.98381257 Ry
     xc contribution           =     -30.79293169 Ry
     ewald contribution        =     268.46058250 Ry

     total energy              =    -102.77526172 Ry
     Harris-Foulkes estimate   =    -102.77526172 Ry
     estimated scf accuracy    <          4.5E-10 Ry

     total magnetization       =     1.00 Bohr mag/cell
     absolute magnetization    =     1.21 Bohr mag/cell

     iteration #  9     ecut=    90.00 Ry     beta=0.70
     Davidson diagonalization with overlap
     ethr =  1.20E-12,  avg # of iterations =  4.0
 
     Magnetic moment per site:
     atom:    1    charge:    0.8375    magn:    0.0457    constr:    0.0000
     atom:    2    charge:    0.8377    magn:    0.0458    constr:    0.0000
     atom:    3    charge:    0.8431    magn:   -0.0094    constr:    0.0000
     atom:    4    charge:    0.8403    magn:    0.0251    constr:    0.0000
     atom:    5    charge:    0.8406    magn:    0.0251    constr:    0.0000
     atom:    6    charge:    0.8431    magn:   -0.0094    constr:    0.0000
     atom:    7    charge:    0.4902    magn:   -0.0019    constr:    0.0000
     atom:    8    charge:    0.4896    magn:   -0.0019    constr:    0.0000
     atom:    9    charge:    0.4907    magn:    0.0001    constr:    0.0000
     atom:   10    charge:    0.4924    magn:   -0.0012    constr:    0.0000
     atom:   11    charge:    0.4917    magn:   -0.0012    constr:    0.0000
     atom:   12    charge:    0.4907    magn:    0.0001    constr:    0.0000
     atom:   13    charge:    6.4540    magn:    0.3591    constr:    0.0000

     total cpu time spent up to now is      136.0 secs

     The total energy is the sum of the following terms:

     one-electron contribution =    -689.42679159 Ry
     hartree contribution      =     348.98384932 Ry
     xc contribution           =     -30.79293575 Ry
     ewald contribution        =     268.46058250 Ry

     total energy              =    -102.77526172 Ry
     Harris-Foulkes estimate   =    -102.77526172 Ry
     estimated scf accuracy    <          5.2E-11 Ry

     total magnetization       =     1.00 Bohr mag/cell
     absolute magnetization    =     1.21 Bohr mag/cell

     iteration # 10     ecut=    90.00 Ry     beta=0.70
     Davidson diagonalization with overlap
     ethr =  1.40E-13,  avg # of iterations =  5.0
 
     Magnetic moment per site:
     atom:    1    charge:    0.8375    magn:    0.0457    constr:    0.0000
     atom:    2    charge:    0.8377    magn:    0.0458    constr:    0.0000
     atom:    3    charge:    0.8431    magn:   -0.0094    constr:    0.0000
     atom:    4    charge:    0.8403    magn:    0.0251    constr:    0.0000
     atom:    5    charge:    0.8406    magn:    0.0251    constr:    0.0000
     atom:    6    charge:    0.8431    magn:   -0.0094    constr:    0.0000
     atom:    7    charge:    0.4902    magn:   -0.0019    constr:    0.0000
     atom:    8    charge:    0.4896    magn:   -0.0019    constr:    0.0000
     atom:    9    charge:    0.4907    magn:    0.0001    constr:    0.0000
     atom:   10    charge:    0.4924    magn:   -0.0012    constr:    0.0000
     atom:   11    charge:    0.4917    magn:   -0.0012    constr:    0.0000
     atom:   12    charge:    0.4907    magn:    0.0001    constr:    0.0000
     atom:   13    charge:    6.4540    magn:    0.3591    constr:    0.0000

     total cpu time spent up to now is      139.0 secs

     The total energy is the sum of the following terms:

     one-electron contribution =    -689.42672014 Ry
     hartree contribution      =     348.98383838 Ry
     xc contribution           =     -30.79293498 Ry
     ewald contribution        =     268.46058250 Ry

     total energy              =    -102.77526172 Ry
     Harris-Foulkes estimate   =    -102.77526172 Ry
     estimated scf accuracy    <          3.4E-11 Ry

     total magnetization       =     1.00 Bohr mag/cell
     absolute magnetization    =     1.21 Bohr mag/cell

     iteration # 11     ecut=    90.00 Ry     beta=0.70
     Davidson diagonalization with overlap
     ethr =  1.00E-13,  avg # of iterations =  3.0
 
     Magnetic moment per site:
     atom:    1    charge:    0.8375    magn:    0.0457    constr:    0.0000
     atom:    2    charge:    0.8377    magn:    0.0458    constr:    0.0000
     atom:    3    charge:    0.8431    magn:   -0.0094    constr:    0.0000
     atom:    4    charge:    0.8403    magn:    0.0251    constr:    0.0000
     atom:    5    charge:    0.8406    magn:    0.0251    constr:    0.0000
     atom:    6    charge:    0.8431    magn:   -0.0094    constr:    0.0000
     atom:    7    charge:    0.4902    magn:   -0.0019    constr:    0.0000
     atom:    8    charge:    0.4896    magn:   -0.0019    constr:    0.0000
     atom:    9    charge:    0.4907    magn:    0.0001    constr:    0.0000
     atom:   10    charge:    0.4924    magn:   -0.0012    constr:    0.0000
     atom:   11    charge:    0.4917    magn:   -0.0012    constr:    0.0000
     atom:   12    charge:    0.4907    magn:    0.0001    constr:    0.0000
     atom:   13    charge:    6.4540    magn:    0.3591    constr:    0.0000

     total cpu time spent up to now is      141.2 secs

     The total energy is the sum of the following terms:

     one-electron contribution =    -689.42673560 Ry
     hartree contribution      =     348.98383142 Ry
     xc contribution           =     -30.79293435 Ry
     ewald contribution        =     268.46058250 Ry

     total energy              =    -102.77526172 Ry
     Harris-Foulkes estimate   =    -102.77526172 Ry
     estimated scf accuracy    <          1.7E-12 Ry

     total magnetization       =     1.00 Bohr mag/cell
     absolute magnetization    =     1.21 Bohr mag/cell

     iteration # 12     ecut=    90.00 Ry     beta=0.70
     Davidson diagonalization with overlap
     ethr =  1.00E-13,  avg # of iterations =  2.0
 
     Magnetic moment per site:
     atom:    1    charge:    0.8375    magn:    0.0457    constr:    0.0000
     atom:    2    charge:    0.8377    magn:    0.0458    constr:    0.0000
     atom:    3    charge:    0.8431    magn:   -0.0094    constr:    0.0000
     atom:    4    charge:    0.8403    magn:    0.0251    constr:    0.0000
     atom:    5    charge:    0.8406    magn:    0.0251    constr:    0.0000
     atom:    6    charge:    0.8431    magn:   -0.0094    constr:    0.0000
     atom:    7    charge:    0.4902    magn:   -0.0019    constr:    0.0000
     atom:    8    charge:    0.4896    magn:   -0.0019    constr:    0.0000
     atom:    9    charge:    0.4907    magn:    0.0001    constr:    0.0000
     atom:   10    charge:    0.4924    magn:   -0.0012    constr:    0.0000
     atom:   11    charge:    0.4917    magn:   -0.0012    constr:    0.0000
     atom:   12    charge:    0.4907    magn:    0.0001    constr:    0.0000
     atom:   13    charge:    6.4540    magn:    0.3591    constr:    0.0000

     total cpu time spent up to now is      143.0 secs

     End of self-consistent calculation

 ------ SPIN UP ------------


          k = 0.0000 0.0000 0.0000 (238961 PWs)   bands (ev):

   -21.2180 -18.6208 -18.4050 -18.2138 -14.7093 -14.6997 -12.6879 -10.9401
   -10.8867 -10.1590  -9.9373  -9.2068  -8.0808  -8.0777  -7.2159  -6.6123
    -6.4446  -6.2390  -5.9709

     occupation numbers 
     1.0000   1.0000   1.0000   1.0000   1.0000   1.0000   1.0000   1.0000
     1.0000   1.0000   1.0000   1.0000   1.0000   1.0000   1.0000   1.0000
     1.0000   1.0000   1.0000

 ------ SPIN DOWN ----------


          k = 0.0000 0.0000 0.0000 (238961 PWs)   bands (ev):

   -21.0611 -18.3282 -18.1684 -18.0231 -14.6184 -14.5739 -12.6531 -10.8737
   -10.8203 -10.0902  -9.9308  -8.8065  -8.0519  -8.0310  -6.5590  -6.4809
    -6.2966  -5.8469  -5.4755

     occupation numbers 
     1.0000   1.0000   1.0000   1.0000   1.0000   1.0000   1.0000   1.0000
     1.0000   1.0000   1.0000   1.0000   1.0000   1.0000   1.0000   1.0000
     1.0000   1.0000   0.0000

     highest occupied level (ev):    -5.8469

     The total energy is the sum of the following terms:

     one-electron contribution =    -689.42674179 Ry
     hartree contribution      =     348.98383205 Ry
     xc contribution           =     -30.79293448 Ry
     ewald contribution        =     268.46058250 Ry

!    total energy              =    -102.77526172 Ry
     Harris-Foulkes estimate   =    -102.77526172 Ry
     estimated scf accuracy    <          8.1E-13 Ry

     The total energy is the sum of the following terms:

     one-electron contribution =    -689.42674179 Ry
     hartree contribution      =     348.98383205 Ry
     xc contribution           =     -30.79293448 Ry
     ewald contribution        =     268.46058250 Ry

     total magnetization       =     1.00 Bohr mag/cell
     absolute magnetization    =     1.21 Bohr mag/cell

     convergence has been achieved in  12 iterations
 
     Using Hirshfeld
        Amplitude [Ry a.u.] :  1.1753E-01
        Acceptor Fragment start :          13
        Acceptor Fragment end   :          13
        Donor Fragment start :           1
        Donor Fragment end   :          12
 
 
     Using Hirshfeld
        Amplitude [Ry a.u.] :  1.1753E-01
        Acceptor Fragment start :          13
        Acceptor Fragment end   :          13
        Donor Fragment start :           1
        Donor Fragment end   :          12
 
     E field correction              : -0.2585555199610383E+01 Ry    
 
     Donor charge                    :      0.6587684490387034 e     
     Acceptor charge                 :     -0.3412305691343835 e     
     Difference of charges           :      0.9999990181730922 e     

     Writing output data file left.save
 
     init_run     :     14.79s CPU     14.79s WALL (       1 calls)
     electrons    :    119.42s CPU    119.42s WALL (       3 calls)
     update_pot   :      1.17s CPU      1.17s WALL (       2 calls)

     Called by init_run:
     wfcinit      :      3.36s CPU      3.36s WALL (       1 calls)
     potinit      :      1.63s CPU      1.63s WALL (       1 calls)

     Called by electrons:
     c_bands      :     75.15s CPU     75.15s WALL (      45 calls)
     sum_band     :      5.73s CPU      5.73s WALL (      45 calls)
     v_of_rho     :     24.66s CPU     24.66s WALL (      48 calls)
     v_h          :      0.40s CPU      0.40s WALL (      48 calls)
     v_xc         :     24.26s CPU     24.26s WALL (      48 calls)
     mix_rho      :      1.91s CPU      1.91s WALL (      45 calls)

     Called by c_bands:
     init_us_2    :      1.45s CPU      1.45s WALL (     182 calls)
     regterg      :     69.35s CPU     69.35s WALL (      90 calls)

     Called by sum_band:

     Called by *egterg:
     h_psi        :     27.32s CPU     27.32s WALL (     442 calls)
     g_psi        :      1.16s CPU      1.16s WALL (     350 calls)
     rdiaghg      :     25.60s CPU     25.60s WALL (     436 calls)
     regterg:over :      4.21s CPU      4.21s WALL (     350 calls)
     regterg:upda :      5.77s CPU      5.77s WALL (     350 calls)
     regterg:last :      1.56s CPU      1.56s WALL (     113 calls)
     rdiaghg:chol :      1.31s CPU      1.31s WALL (     436 calls)
     rdiaghg:inve :      0.71s CPU      0.71s WALL (     436 calls)
     rdiaghg:para :      2.44s CPU      2.44s WALL (     872 calls)

     Called by h_psi:
     h_psi:vloc   :     22.44s CPU     22.44s WALL (     442 calls)
     h_psi:vnl    :      4.79s CPU      4.79s WALL (     442 calls)
     add_vuspsi   :      2.32s CPU      2.33s WALL (     442 calls)

     General routines
     calbec       :      2.46s CPU      2.46s WALL (     442 calls)
     fft          :     14.11s CPU     14.11s WALL (    2870 calls)
     fftw         :     22.88s CPU     22.88s WALL (    7374 calls)
 
     Parallel routines
     fft_scatter  :     15.29s CPU     15.29s WALL (   10244 calls)
 
     PWSCF        :  2m48.68s CPU     2m48.68s WALL

 
   This run was terminated on:  23:18:45  12Jan2016            

=------------------------------------------------------------------------------=
   JOB DONE.
=------------------------------------------------------------------------------=
2016-01-12 23:19:02.756 (INFO ) [0xfff9c29c410] CET-40000-51331-128:1514565:ibm.runjob.client.Job: exited with status 0
2016-01-12 23:19:02.756 (INFO ) [0xfff9c29c410] tatu.runjob.client: task exited with status 0
2016-01-12 23:19:02.756 (INFO ) [0xfff967834e0] 26038:tatu.runjob.monitor: monitor terminating
2016-01-12 23:19:02.760 (INFO ) [0xfff9c29c410] tatu.runjob.client: monitor completed
