2016-01-12 23:19:02.821 (INFO ) [0xfff966bc410] ibm.runjob.AbstractOptions: using properties file /bgsys/local/etc/bg.properties
2016-01-12 23:19:02.831 (INFO ) [0xfff966bc410] ibm.runjob.AbstractOptions: max open file descriptors: 65536
2016-01-12 23:19:02.832 (INFO ) [0xfff966bc410] ibm.runjob.AbstractOptions: core file limit: 18446744073709551615
2016-01-12 23:19:02.833 (INFO ) [0xfff966bc410] 30488:tatu.runjob.client: scheduler job id is 694677
2016-01-12 23:19:02.838 (INFO ) [0xfff901834e0] 30488:tatu.runjob.monitor: monitor started
2016-01-12 23:19:03.322 (INFO ) [0xfff901834e0] 30488:tatu.runjob.monitor: task record 1458307 created
2016-01-12 23:19:03.323 (INFO ) [0xfff966bc410] CET-40000-51331-128:30488:ibm.runjob.client.options.Parser: set local socket to runjob_mux from properties file
2016-01-12 23:19:05.574 (INFO ) [0xfff966bc410] CET-40000-51331-128:1514567:ibm.runjob.client.Job: job 1514567 started

     Program PWSCF v.5.1.1 starts on 12Jan2016 at 23:19: 5 

     This program is part of the open-source Quantum ESPRESSO suite
     for quantum simulation of materials; please cite
         "P. Giannozzi et al., J. Phys.:Condens. Matter 21 395502 (2009);
          URL http://www.quantum-espresso.org", 
     in publications or presentations arising from this work. More details at
     http://www.quantum-espresso.org/quote

     Parallel version (MPI & OpenMP), running on     256 processor cores
     Number of MPI processes:               256
     Threads/MPI process:                     1
     R & G space division:  proc/nbgrp/npool/nimage =     256
     Waiting for input...
     Reading input from standard input

     Current dimensions of program PWSCF are:
     Max number of different atomic species (ntypx) = 10
     Max number of k-points (npk) =  40000
     Max angular momentum in pseudopotentials (lmaxx) =  3
               file C.pbe-mt_fhi.UPF: wavefunction(s)  4f renormalized
               file H.pbe-mt_fhi.UPF: wavefunction(s)  2p 4f renormalized
               file Cl.pbe-mt_fhi.UPF: wavefunction(s)  4f renormalized

     gamma-point specific algorithms are used
     Message from routine setup:
     the system is metallic, specify occupations

     Subspace diagonalization in iterative solution of the eigenvalue problem:
     scalapack distributed-memory algorithm (size of sub-group: 11* 11 procs)

 
     Parallelization info
     --------------------
     sticks:   dense  smooth     PW     G-vecs:    dense   smooth      PW
     Min         114     114     27                14918    14918    1856
     Max         116     116     30                14956    14956    1882
     Sum       29541   29541   7393              3823391  3823391  477921
     Tot       14771   14771   3697
 
     Generating pointlists ...
     new r_m :   0.0263 (alat units)  0.8450 (a.u.) for type    1
     new r_m :   0.0263 (alat units)  0.8450 (a.u.) for type    2
     new r_m :   0.0747 (alat units)  2.4011 (a.u.) for type    3
2016-01-12 23:19:09.087 (INFO ) [0xfff901834e0] 30488:tatu.runjob.monitor: tracklib completed


     bravais-lattice index     =            1
     lattice parameter (alat)  =      32.1253  a.u.
     unit-cell volume          =   33154.5678 (a.u.)^3
     number of atoms/cell      =           13
     number of atomic types    =            3
     number of electrons       =        37.00 (up:  19.00, down:  18.00)
     number of Kohn-Sham states=           19
     kinetic-energy cutoff     =      90.0000  Ry
     charge density cutoff     =     360.0000  Ry
     convergence threshold     =      1.0E-12
     mixing beta               =       0.7000
     number of iterations used =            8  plain     mixing
     Exchange-correlation      = PBE ( 1  4  3  4 0 0)
     Assuming isolated system, Martyna-Tuckerman method


     celldm(1)=  32.125344  celldm(2)=   0.000000  celldm(3)=   0.000000
     celldm(4)=   0.000000  celldm(5)=   0.000000  celldm(6)=   0.000000

     crystal axes: (cart. coord. in units of alat)
               a(1) = (   1.000000   0.000000   0.000000 )  
               a(2) = (   0.000000   1.000000   0.000000 )  
               a(3) = (   0.000000   0.000000   1.000000 )  

     reciprocal axes: (cart. coord. in units 2 pi/alat)
               b(1) = (  1.000000  0.000000  0.000000 )  
               b(2) = (  0.000000  1.000000  0.000000 )  
               b(3) = (  0.000000  0.000000  1.000000 )  


     PseudoPot. # 1 for  C read from file:
     ./C.pbe-mt_fhi.UPF
     MD5 check sum: 058ca341f9d6d5327d9962fd88a91b65
     Pseudo is Norm-conserving, Zval =  4.0
     Generated using FHI98PP, converted with fhi2upf.x v.5.0.2
     Using radial grid of  461 points,  3 beta functions with: 
                l(1) =   0
                l(2) =   1
                l(3) =   3

     PseudoPot. # 2 for  H read from file:
     ./H.pbe-mt_fhi.UPF
     MD5 check sum: a19bd5488733b3d98581df861506e80d
     Pseudo is Norm-conserving, Zval =  1.0
     Generated using FHI98PP, converted with fhi2upf.x v.5.0.2
     Using radial grid of  387 points,  3 beta functions with: 
                l(1) =   0
                l(2) =   1
                l(3) =   3

     PseudoPot. # 3 for Cl read from file:
     ./Cl.pbe-mt_fhi.UPF
     MD5 check sum: 2690b95bbfe21454a1a3af22474751ef
     Pseudo is Norm-conserving, Zval =  7.0
     Generated using FHI98PP, converted with fhi2upf.x v.5.0.2
     Using radial grid of  503 points,  3 beta functions with: 
                l(1) =   0
                l(2) =   1
                l(3) =   3

     atomic species   valence    mass     pseudopotential
        C              4.00    12.01070      C( 1.00)
        H              1.00     1.00794      H( 1.00)
        Cl             7.00     1.00000     Cl( 1.00)

     Starting magnetic structure 
     atomic species   magnetization
        C            0.000
        H            0.000
        Cl           0.000

     No symmetry found


                                    s                        frac. trans.

      isym =  1     identity                                     

 cryst.   s( 1) = (     1          0          0      )
                  (     0          1          0      )
                  (     0          0          1      )

 cart.    s( 1) = (  1.0000000  0.0000000  0.0000000 )
                  (  0.0000000  1.0000000  0.0000000 )
                  (  0.0000000  0.0000000  1.0000000 )


     point group C_1 (1)    
     there are  1 classes
     the character table:

       E    
A      1.00

     the symmetry operations in each class:
     E        1

   Cartesian axes

     site n.     atom                  positions (alat units)
         1           C   tau(   1) = (   0.0000000   0.0821765   0.0000000  )
         2           C   tau(   2) = (   0.0711647   0.0410882   0.0000000  )
         3           C   tau(   3) = (   0.0711647  -0.0410882   0.0000000  )
         4           C   tau(   4) = (   0.0000000  -0.0821765   0.0000000  )
         5           C   tau(   5) = (  -0.0711647  -0.0410882   0.0000000  )
         6           C   tau(   6) = (  -0.0711647   0.0410882   0.0000000  )
         7           H   tau(   7) = (   0.0000000   0.1459412   0.0000000  )
         8           H   tau(   8) = (   0.1263882   0.0729706   0.0000000  )
         9           H   tau(   9) = (   0.1263882  -0.0729706   0.0000000  )
        10           H   tau(  10) = (   0.0000000  -0.1459412   0.0000000  )
        11           H   tau(  11) = (  -0.1263882  -0.0729706   0.0000000  )
        12           H   tau(  12) = (  -0.1263882   0.0729706   0.0000000  )
        13           Cl  tau(  13) = (   0.0355824   0.0616324   0.1764706  )

   Crystallographic axes

     site n.     atom                  positions (cryst. coord.)
         1           C   tau(   1) = (  0.0000000  0.0821765  0.0000000  )
         2           C   tau(   2) = (  0.0711647  0.0410882  0.0000000  )
         3           C   tau(   3) = (  0.0711647 -0.0410882  0.0000000  )
         4           C   tau(   4) = (  0.0000000 -0.0821765  0.0000000  )
         5           C   tau(   5) = ( -0.0711647 -0.0410882  0.0000000  )
         6           C   tau(   6) = ( -0.0711647  0.0410882  0.0000000  )
         7           H   tau(   7) = (  0.0000000  0.1459412  0.0000000  )
         8           H   tau(   8) = (  0.1263882  0.0729706  0.0000000  )
         9           H   tau(   9) = (  0.1263882 -0.0729706  0.0000000  )
        10           H   tau(  10) = (  0.0000000 -0.1459412  0.0000000  )
        11           H   tau(  11) = ( -0.1263882 -0.0729706  0.0000000  )
        12           H   tau(  12) = ( -0.1263882  0.0729706  0.0000000  )
        13           Cl  tau(  13) = (  0.0355824  0.0616324  0.1764706  )

     number of k points=     2
                       cart. coord. in units 2pi/alat
        k(    1) = (   0.0000000   0.0000000   0.0000000), wk =   1.0000000
        k(    2) = (   0.0000000   0.0000000   0.0000000), wk =   1.0000000

                       cryst. coord.
        k(    1) = (   0.0000000   0.0000000   0.0000000), wk =   1.0000000
        k(    2) = (   0.0000000   0.0000000   0.0000000), wk =   1.0000000

     Dense  grid:  1911696 G-vectors     FFT dimensions: ( 198, 198, 198)

     Largest allocated arrays     est. size (Mb)     dimensions
        Kohn-Sham Wavefunctions         0.27 Mb     (     930,   19)
        NL pseudopotentials             2.03 Mb     (     930,  143)
        Each V/rho on FFT grid          1.20 Mb     (   39204,   2)
        Each G-vector array             0.06 Mb     (    7461)
        G-vector shells                 0.02 Mb     (    2848)
     Largest temporary arrays     est. size (Mb)     dimensions
        Auxiliary wavefunctions         0.54 Mb     (     930,   76)
        Each subspace H/S matrix        0.00 Mb     (       6,    6)
        Each <psi_i|beta_j> matrix      0.02 Mb     (     143,   19)
        Arrays for rho mixing           4.79 Mb     (   39204,    8)
 
     Using Hirshfeld
        Amplitude [Ry a.u.] : -3.8823E-01
        Acceptor Fragment start :          13
        Acceptor Fragment end   :          13
        Donor Fragment start :           1
        Donor Fragment end   :          12
 

     Initial potential from superposition of free atoms
     Check: negative starting charge=(component1):   -0.000758
     Check: negative starting charge=(component2):   -0.000758

     starting charge   36.99968, renormalised to   37.00000

     negative rho (up, down):  7.580E-04 7.580E-04
     Starting wfc are  208 randomized atomic wfcs

     total cpu time spent up to now is       16.1 secs

     per-process dynamical memory:    53.4 Mb

     Self-consistent Calculation

     iteration #  1     ecut=    90.00 Ry     beta=0.70
     Davidson diagonalization with overlap
     ethr =  1.00E-02,  avg # of iterations =  3.0

     negative rho (up, down):  1.012E-04 1.163E-04
 
     Magnetic moment per site:
     atom:    1    charge:    1.0226    magn:    0.0313    constr:    0.0000
     atom:    2    charge:    1.0230    magn:    0.0316    constr:    0.0000
     atom:    3    charge:    1.0207    magn:    0.0312    constr:    0.0000
     atom:    4    charge:    1.0186    magn:    0.0308    constr:    0.0000
     atom:    5    charge:    1.0190    magn:    0.0309    constr:    0.0000
     atom:    6    charge:    1.0205    magn:    0.0312    constr:    0.0000
     atom:    7    charge:    0.4490    magn:    0.0016    constr:    0.0000
     atom:    8    charge:    0.4484    magn:    0.0014    constr:    0.0000
     atom:    9    charge:    0.4480    magn:    0.0014    constr:    0.0000
     atom:   10    charge:    0.4487    magn:    0.0013    constr:    0.0000
     atom:   11    charge:    0.4482    magn:    0.0013    constr:    0.0000
     atom:   12    charge:    0.4480    magn:    0.0013    constr:    0.0000
     atom:   13    charge:    3.1668    magn:    0.0007    constr:    0.0000

     total cpu time spent up to now is       18.5 secs

     The total energy is the sum of the following terms:

     one-electron contribution =    -728.85117861 Ry
     hartree contribution      =     372.07492543 Ry
     xc contribution           =     -31.47682052 Ry
     ewald contribution        =     268.46058250 Ry

     total energy              =    -103.29667445 Ry
     Harris-Foulkes estimate   =    -117.31656448 Ry
     estimated scf accuracy    <      16.62021984 Ry

     total magnetization       =     1.00 Bohr mag/cell
     absolute magnetization    =     1.01 Bohr mag/cell

     iteration #  2     ecut=    90.00 Ry     beta=0.70
     Davidson diagonalization with overlap
     ethr =  1.00E-02,  avg # of iterations = 12.0

     negative rho (up, down):  4.838E-05 6.795E-05
 
     Magnetic moment per site:
     atom:    1    charge:    0.9005    magn:    0.0276    constr:    0.0000
     atom:    2    charge:    0.9008    magn:    0.0278    constr:    0.0000
     atom:    3    charge:    0.8891    magn:    0.0272    constr:    0.0000
     atom:    4    charge:    0.8843    magn:    0.0261    constr:    0.0000
     atom:    5    charge:    0.8847    magn:    0.0262    constr:    0.0000
     atom:    6    charge:    0.8890    magn:    0.0271    constr:    0.0000
     atom:    7    charge:    0.4504    magn:    0.0015    constr:    0.0000
     atom:    8    charge:    0.4498    magn:    0.0013    constr:    0.0000
     atom:    9    charge:    0.4370    magn:    0.0011    constr:    0.0000
     atom:   10    charge:    0.4354    magn:    0.0010    constr:    0.0000
     atom:   11    charge:    0.4349    magn:    0.0010    constr:    0.0000
     atom:   12    charge:    0.4370    magn:    0.0011    constr:    0.0000
     atom:   13    charge:    5.4432    magn:    0.0090    constr:    0.0000

     total cpu time spent up to now is       24.0 secs

     The total energy is the sum of the following terms:

     one-electron contribution =    -577.16202072 Ry
     hartree contribution      =     348.09868119 Ry
     xc contribution           =     -30.31865501 Ry
     ewald contribution        =     268.46058250 Ry

     total energy              =     -88.12155845 Ry
     Harris-Foulkes estimate   =    -140.42703158 Ry
     estimated scf accuracy    <     189.31876774 Ry

     total magnetization       =     1.00 Bohr mag/cell
     absolute magnetization    =     1.03 Bohr mag/cell

     iteration #  3     ecut=    90.00 Ry     beta=0.70
     Davidson diagonalization with overlap
     ethr =  1.00E-02,  avg # of iterations = 11.0

     negative rho (up, down):  1.551E-05 1.979E-05
 
     Magnetic moment per site:
     atom:    1    charge:    0.8697    magn:    0.0209    constr:    0.0000
     atom:    2    charge:    0.8698    magn:    0.0212    constr:    0.0000
     atom:    3    charge:    0.8703    magn:    0.0193    constr:    0.0000
     atom:    4    charge:    0.8645    magn:    0.0187    constr:    0.0000
     atom:    5    charge:    0.8649    magn:    0.0187    constr:    0.0000
     atom:    6    charge:    0.8700    magn:    0.0195    constr:    0.0000
     atom:    7    charge:    0.4703    magn:    0.0005    constr:    0.0000
     atom:    8    charge:    0.4696    magn:    0.0004    constr:    0.0000
     atom:    9    charge:    0.4658    magn:    0.0002    constr:    0.0000
     atom:   10    charge:    0.4657    magn:    0.0001    constr:    0.0000
     atom:   11    charge:    0.4651    magn:    0.0002    constr:    0.0000
     atom:   12    charge:    0.4658    magn:    0.0001    constr:    0.0000
     atom:   13    charge:    5.6368    magn:    0.3037    constr:    0.0000

     total cpu time spent up to now is       28.7 secs

     The total energy is the sum of the following terms:

     one-electron contribution =    -701.29960113 Ry
     hartree contribution      =     349.72575387 Ry
     xc contribution           =     -30.51405868 Ry
     ewald contribution        =     268.46058250 Ry

     total energy              =    -114.36850129 Ry
     Harris-Foulkes estimate   =    -114.50598960 Ry
     estimated scf accuracy    <       0.62422011 Ry

     total magnetization       =     1.00 Bohr mag/cell
     absolute magnetization    =     1.06 Bohr mag/cell

     iteration #  4     ecut=    90.00 Ry     beta=0.70
     Davidson diagonalization with overlap
     ethr =  1.69E-03,  avg # of iterations =  2.0

     negative rho (up, down):  5.588E-04 3.216E-04
 
     Magnetic moment per site:
     atom:    1    charge:    0.8449    magn:    0.0063    constr:    0.0000
     atom:    2    charge:    0.8453    magn:    0.0064    constr:    0.0000
     atom:    3    charge:    0.8432    magn:    0.0062    constr:    0.0000
     atom:    4    charge:    0.8431    magn:    0.0054    constr:    0.0000
     atom:    5    charge:    0.8432    magn:    0.0055    constr:    0.0000
     atom:    6    charge:    0.8434    magn:    0.0063    constr:    0.0000
     atom:    7    charge:    0.4987    magn:   -0.0007    constr:    0.0000
     atom:    8    charge:    0.4979    magn:   -0.0008    constr:    0.0000
     atom:    9    charge:    0.5002    magn:   -0.0008    constr:    0.0000
     atom:   10    charge:    0.5029    magn:   -0.0010    constr:    0.0000
     atom:   11    charge:    0.5021    magn:   -0.0010    constr:    0.0000
     atom:   12    charge:    0.5002    magn:   -0.0008    constr:    0.0000
     atom:   13    charge:    5.8997    magn:    0.7871    constr:    0.0000

     total cpu time spent up to now is       30.6 secs

     The total energy is the sum of the following terms:

     one-electron contribution =    -701.28037716 Ry
     hartree contribution      =     351.10240362 Ry
     xc contribution           =     -30.81783571 Ry
     ewald contribution        =     268.46058250 Ry

     total energy              =    -114.34518331 Ry
     Harris-Foulkes estimate   =    -114.42135245 Ry
     estimated scf accuracy    <       0.25851433 Ry

     total magnetization       =     1.00 Bohr mag/cell
     absolute magnetization    =     1.07 Bohr mag/cell

     iteration #  5     ecut=    90.00 Ry     beta=0.70
     Davidson diagonalization with overlap
     ethr =  6.99E-04,  avg # of iterations = 13.5

     negative rho (up, down):  1.513E-05 1.417E-05
 
     Magnetic moment per site:
     atom:    1    charge:    0.8461    magn:    0.0041    constr:    0.0000
     atom:    2    charge:    0.8463    magn:    0.0042    constr:    0.0000
     atom:    3    charge:    0.8443    magn:    0.0002    constr:    0.0000
     atom:    4    charge:    0.8436    magn:    0.0021    constr:    0.0000
     atom:    5    charge:    0.8437    magn:    0.0022    constr:    0.0000
     atom:    6    charge:    0.8444    magn:    0.0003    constr:    0.0000
     atom:    7    charge:    0.4958    magn:   -0.0007    constr:    0.0000
     atom:    8    charge:    0.4951    magn:   -0.0007    constr:    0.0000
     atom:    9    charge:    0.4953    magn:   -0.0010    constr:    0.0000
     atom:   10    charge:    0.4967    magn:   -0.0010    constr:    0.0000
     atom:   11    charge:    0.4960    magn:   -0.0010    constr:    0.0000
     atom:   12    charge:    0.4953    magn:   -0.0010    constr:    0.0000
     atom:   13    charge:    5.7702    magn:    0.8869    constr:    0.0000

     total cpu time spent up to now is       34.7 secs

     The total energy is the sum of the following terms:

     one-electron contribution =    -706.42402801 Ry
     hartree contribution      =     350.33903463 Ry
     xc contribution           =     -30.66703670 Ry
     ewald contribution        =     268.46058250 Ry

     total energy              =    -114.31938185 Ry
     Harris-Foulkes estimate   =    -114.43972279 Ry
     estimated scf accuracy    <       1.17045583 Ry

     total magnetization       =     1.00 Bohr mag/cell
     absolute magnetization    =     3.15 Bohr mag/cell

     iteration #  6     ecut=    90.00 Ry     beta=0.70
     Davidson diagonalization with overlap
     ethr =  6.99E-04,  avg # of iterations =  7.5

     negative rho (up, down):  7.669E-06 7.990E-06
 
     Magnetic moment per site:
     atom:    1    charge:    0.8427    magn:    0.0001    constr:    0.0000
     atom:    2    charge:    0.8428    magn:    0.0002    constr:    0.0000
     atom:    3    charge:    0.8401    magn:   -0.0022    constr:    0.0000
     atom:    4    charge:    0.8415    magn:   -0.0028    constr:    0.0000
     atom:    5    charge:    0.8418    magn:   -0.0027    constr:    0.0000
     atom:    6    charge:    0.8400    magn:   -0.0021    constr:    0.0000
     atom:    7    charge:    0.4999    magn:   -0.0005    constr:    0.0000
     atom:    8    charge:    0.4991    magn:   -0.0005    constr:    0.0000
     atom:    9    charge:    0.4980    magn:   -0.0008    constr:    0.0000
     atom:   10    charge:    0.4977    magn:   -0.0008    constr:    0.0000
     atom:   11    charge:    0.4970    magn:   -0.0008    constr:    0.0000
     atom:   12    charge:    0.4981    magn:   -0.0008    constr:    0.0000
     atom:   13    charge:    5.8033    magn:    1.0038    constr:    0.0000

     total cpu time spent up to now is       37.5 secs

     The total energy is the sum of the following terms:

     one-electron contribution =    -701.99387334 Ry
     hartree contribution      =     350.56778033 Ry
     xc contribution           =     -30.70670511 Ry
     ewald contribution        =     268.46058250 Ry

     total energy              =    -114.40946730 Ry
     Harris-Foulkes estimate   =    -114.41498894 Ry
     estimated scf accuracy    <       0.04870633 Ry

     total magnetization       =     1.00 Bohr mag/cell
     absolute magnetization    =     1.12 Bohr mag/cell

     iteration #  7     ecut=    90.00 Ry     beta=0.70
     Davidson diagonalization with overlap
     ethr =  1.32E-04,  avg # of iterations =  8.0

     negative rho (up, down):  2.397E-05 8.611E-06
 
     Magnetic moment per site:
     atom:    1    charge:    0.8426    magn:   -0.0008    constr:    0.0000
     atom:    2    charge:    0.8427    magn:   -0.0008    constr:    0.0000
     atom:    3    charge:    0.8411    magn:   -0.0027    constr:    0.0000
     atom:    4    charge:    0.8408    magn:   -0.0039    constr:    0.0000
     atom:    5    charge:    0.8411    magn:   -0.0039    constr:    0.0000
     atom:    6    charge:    0.8410    magn:   -0.0026    constr:    0.0000
     atom:    7    charge:    0.4999    magn:   -0.0004    constr:    0.0000
     atom:    8    charge:    0.4991    magn:   -0.0004    constr:    0.0000
     atom:    9    charge:    0.4983    magn:   -0.0006    constr:    0.0000
     atom:   10    charge:    0.4981    magn:   -0.0006    constr:    0.0000
     atom:   11    charge:    0.4974    magn:   -0.0006    constr:    0.0000
     atom:   12    charge:    0.4983    magn:   -0.0006    constr:    0.0000
     atom:   13    charge:    5.8205    magn:    1.0265    constr:    0.0000

     total cpu time spent up to now is       40.3 secs

     The total energy is the sum of the following terms:

     one-electron contribution =    -702.24275150 Ry
     hartree contribution      =     350.65757502 Ry
     xc contribution           =     -30.72682788 Ry
     ewald contribution        =     268.46058250 Ry

     total energy              =    -114.41175347 Ry
     Harris-Foulkes estimate   =    -114.41405164 Ry
     estimated scf accuracy    <       0.01866428 Ry

     total magnetization       =     1.00 Bohr mag/cell
     absolute magnetization    =     1.21 Bohr mag/cell

     iteration #  8     ecut=    90.00 Ry     beta=0.70
     Davidson diagonalization with overlap
     ethr =  5.04E-05,  avg # of iterations =  8.0

     negative rho (up, down):  1.764E-05 7.227E-06
 
     Magnetic moment per site:
     atom:    1    charge:    0.8427    magn:   -0.0012    constr:    0.0000
     atom:    2    charge:    0.8428    magn:   -0.0012    constr:    0.0000
     atom:    3    charge:    0.8413    magn:   -0.0029    constr:    0.0000
     atom:    4    charge:    0.8413    magn:   -0.0044    constr:    0.0000
     atom:    5    charge:    0.8415    magn:   -0.0044    constr:    0.0000
     atom:    6    charge:    0.8412    magn:   -0.0029    constr:    0.0000
     atom:    7    charge:    0.4997    magn:   -0.0003    constr:    0.0000
     atom:    8    charge:    0.4990    magn:   -0.0004    constr:    0.0000
     atom:    9    charge:    0.4981    magn:   -0.0006    constr:    0.0000
     atom:   10    charge:    0.4980    magn:   -0.0006    constr:    0.0000
     atom:   11    charge:    0.4972    magn:   -0.0006    constr:    0.0000
     atom:   12    charge:    0.4981    magn:   -0.0006    constr:    0.0000
     atom:   13    charge:    5.8191    magn:    1.0375    constr:    0.0000

     total cpu time spent up to now is       43.5 secs

     The total energy is the sum of the following terms:

     one-electron contribution =    -703.22013246 Ry
     hartree contribution      =     350.66125384 Ry
     xc contribution           =     -30.72686929 Ry
     ewald contribution        =     268.46058250 Ry

     total energy              =    -114.41661612 Ry
     Harris-Foulkes estimate   =    -114.41653789 Ry
     estimated scf accuracy    <       0.01278906 Ry

     total magnetization       =     1.00 Bohr mag/cell
     absolute magnetization    =     1.75 Bohr mag/cell

     iteration #  9     ecut=    90.00 Ry     beta=0.70
     Davidson diagonalization with overlap
     ethr =  3.46E-05,  avg # of iterations =  1.0

     negative rho (up, down):  1.946E-06 1.426E-05
 
     Magnetic moment per site:
     atom:    1    charge:    0.8492    magn:   -0.0070    constr:    0.0000
     atom:    2    charge:    0.8495    magn:   -0.0070    constr:    0.0000
     atom:    3    charge:    0.8466    magn:   -0.0067    constr:    0.0000
     atom:    4    charge:    0.8466    magn:   -0.0112    constr:    0.0000
     atom:    5    charge:    0.8468    magn:   -0.0112    constr:    0.0000
     atom:    6    charge:    0.8467    magn:   -0.0066    constr:    0.0000
     atom:    7    charge:    0.4970    magn:    0.0000    constr:    0.0000
     atom:    8    charge:    0.4963    magn:    0.0000    constr:    0.0000
     atom:    9    charge:    0.4945    magn:    0.0001    constr:    0.0000
     atom:   10    charge:    0.4955    magn:    0.0000    constr:    0.0000
     atom:   11    charge:    0.4948    magn:    0.0000    constr:    0.0000
     atom:   12    charge:    0.4945    magn:    0.0001    constr:    0.0000
     atom:   13    charge:    5.7942    magn:    1.1617    constr:    0.0000

     total cpu time spent up to now is       45.2 secs

     The total energy is the sum of the following terms:

     one-electron contribution =    -703.22648381 Ry
     hartree contribution      =     350.74942013 Ry
     xc contribution           =     -30.73056825 Ry
     ewald contribution        =     268.46058250 Ry

     total energy              =    -114.41628187 Ry
     Harris-Foulkes estimate   =    -114.41700272 Ry
     estimated scf accuracy    <       0.01129034 Ry

     total magnetization       =     1.00 Bohr mag/cell
     absolute magnetization    =     1.73 Bohr mag/cell

     iteration # 10     ecut=    90.00 Ry     beta=0.70
     Davidson diagonalization with overlap
     ethr =  3.05E-05,  avg # of iterations =  5.0

     negative rho (up, down):  3.025E-06 2.422E-05
 
     Magnetic moment per site:
     atom:    1    charge:    0.8496    magn:   -0.0076    constr:    0.0000
     atom:    2    charge:    0.8500    magn:   -0.0076    constr:    0.0000
     atom:    3    charge:    0.8464    magn:   -0.0061    constr:    0.0000
     atom:    4    charge:    0.8477    magn:   -0.0121    constr:    0.0000
     atom:    5    charge:    0.8478    magn:   -0.0121    constr:    0.0000
     atom:    6    charge:    0.8466    magn:   -0.0060    constr:    0.0000
     atom:    7    charge:    0.4967    magn:    0.0001    constr:    0.0000
     atom:    8    charge:    0.4960    magn:    0.0001    constr:    0.0000
     atom:    9    charge:    0.4942    magn:    0.0003    constr:    0.0000
     atom:   10    charge:    0.4952    magn:    0.0001    constr:    0.0000
     atom:   11    charge:    0.4946    magn:    0.0001    constr:    0.0000
     atom:   12    charge:    0.4942    magn:    0.0003    constr:    0.0000
     atom:   13    charge:    5.7923    magn:    1.1665    constr:    0.0000

     total cpu time spent up to now is       47.5 secs

     The total energy is the sum of the following terms:

     one-electron contribution =    -702.78215772 Ry
     hartree contribution      =     350.75801100 Ry
     xc contribution           =     -30.73212183 Ry
     ewald contribution        =     268.46058250 Ry

     total energy              =    -114.41854981 Ry
     Harris-Foulkes estimate   =    -114.41827202 Ry
     estimated scf accuracy    <       0.00137734 Ry

     total magnetization       =     1.00 Bohr mag/cell
     absolute magnetization    =     1.51 Bohr mag/cell

     iteration # 11     ecut=    90.00 Ry     beta=0.70
     Davidson diagonalization with overlap
     ethr =  3.72E-06,  avg # of iterations =  9.0

     negative rho (up, down):  2.937E-05 1.037E-04
 
     Magnetic moment per site:
     atom:    1    charge:    0.8504    magn:   -0.0094    constr:    0.0000
     atom:    2    charge:    0.8507    magn:   -0.0095    constr:    0.0000
     atom:    3    charge:    0.8485    magn:   -0.0067    constr:    0.0000
     atom:    4    charge:    0.8483    magn:   -0.0145    constr:    0.0000
     atom:    5    charge:    0.8485    magn:   -0.0145    constr:    0.0000
     atom:    6    charge:    0.8487    magn:   -0.0067    constr:    0.0000
     atom:    7    charge:    0.4965    magn:    0.0004    constr:    0.0000
     atom:    8    charge:    0.4958    magn:    0.0004    constr:    0.0000
     atom:    9    charge:    0.4943    magn:    0.0005    constr:    0.0000
     atom:   10    charge:    0.4954    magn:    0.0006    constr:    0.0000
     atom:   11    charge:    0.4948    magn:    0.0006    constr:    0.0000
     atom:   12    charge:    0.4943    magn:    0.0005    constr:    0.0000
     atom:   13    charge:    5.7973    magn:    1.1942    constr:    0.0000

     total cpu time spent up to now is       51.1 secs

     The total energy is the sum of the following terms:

     one-electron contribution =    -702.53679019 Ry
     hartree contribution      =     350.84073156 Ry
     xc contribution           =     -30.74912668 Ry
     ewald contribution        =     268.46058250 Ry

     total energy              =    -114.41927125 Ry
     Harris-Foulkes estimate   =    -114.41932262 Ry
     estimated scf accuracy    <       0.00556468 Ry

     total magnetization       =     1.00 Bohr mag/cell
     absolute magnetization    =     1.45 Bohr mag/cell

     iteration # 12     ecut=    90.00 Ry     beta=0.70
     Davidson diagonalization with overlap
     ethr =  3.72E-06,  avg # of iterations =  7.5

     negative rho (up, down):  4.262E-05 1.547E-04
 
     Magnetic moment per site:
     atom:    1    charge:    0.8507    magn:   -0.0102    constr:    0.0000
     atom:    2    charge:    0.8510    magn:   -0.0103    constr:    0.0000
     atom:    3    charge:    0.8488    magn:   -0.0069    constr:    0.0000
     atom:    4    charge:    0.8486    magn:   -0.0155    constr:    0.0000
     atom:    5    charge:    0.8488    magn:   -0.0155    constr:    0.0000
     atom:    6    charge:    0.8489    magn:   -0.0069    constr:    0.0000
     atom:    7    charge:    0.4964    magn:    0.0005    constr:    0.0000
     atom:    8    charge:    0.4957    magn:    0.0005    constr:    0.0000
     atom:    9    charge:    0.4941    magn:    0.0006    constr:    0.0000
     atom:   10    charge:    0.4952    magn:    0.0007    constr:    0.0000
     atom:   11    charge:    0.4946    magn:    0.0007    constr:    0.0000
     atom:   12    charge:    0.4941    magn:    0.0006    constr:    0.0000
     atom:   13    charge:    5.7969    magn:    1.2093    constr:    0.0000

     total cpu time spent up to now is       54.2 secs

     The total energy is the sum of the following terms:

     one-electron contribution =    -702.64393199 Ry
     hartree contribution      =     350.84287965 Ry
     xc contribution           =     -30.75030502 Ry
     ewald contribution        =     268.46058250 Ry

     total energy              =    -114.42009284 Ry
     Harris-Foulkes estimate   =    -114.41992352 Ry
     estimated scf accuracy    <       0.00178913 Ry

     total magnetization       =     1.00 Bohr mag/cell
     absolute magnetization    =     1.56 Bohr mag/cell

     iteration # 13     ecut=    90.00 Ry     beta=0.70
     Davidson diagonalization with overlap
     ethr =  3.72E-06,  avg # of iterations =  5.0

     negative rho (up, down):  2.075E-05 5.066E-05
 
     Magnetic moment per site:
     atom:    1    charge:    0.8478    magn:   -0.0079    constr:    0.0000
     atom:    2    charge:    0.8481    magn:   -0.0079    constr:    0.0000
     atom:    3    charge:    0.8463    magn:   -0.0063    constr:    0.0000
     atom:    4    charge:    0.8462    magn:   -0.0131    constr:    0.0000
     atom:    5    charge:    0.8464    magn:   -0.0131    constr:    0.0000
     atom:    6    charge:    0.8464    magn:   -0.0063    constr:    0.0000
     atom:    7    charge:    0.4975    magn:    0.0004    constr:    0.0000
     atom:    8    charge:    0.4968    magn:    0.0004    constr:    0.0000
     atom:    9    charge:    0.4952    magn:    0.0003    constr:    0.0000
     atom:   10    charge:    0.4959    magn:    0.0004    constr:    0.0000
     atom:   11    charge:    0.4952    magn:    0.0004    constr:    0.0000
     atom:   12    charge:    0.4952    magn:    0.0003    constr:    0.0000
     atom:   13    charge:    5.8008    magn:    1.1741    constr:    0.0000

     total cpu time spent up to now is       56.6 secs

     The total energy is the sum of the following terms:

     one-electron contribution =    -702.65303862 Ry
     hartree contribution      =     350.73830205 Ry
     xc contribution           =     -30.73438086 Ry
     ewald contribution        =     268.46058250 Ry

     total energy              =    -114.42026796 Ry
     Harris-Foulkes estimate   =    -114.42021931 Ry
     estimated scf accuracy    <       0.00150629 Ry

     total magnetization       =     1.00 Bohr mag/cell
     absolute magnetization    =     1.58 Bohr mag/cell

     iteration # 14     ecut=    90.00 Ry     beta=0.70
     Davidson diagonalization with overlap
     ethr =  3.72E-06,  avg # of iterations =  5.5

     negative rho (up, down):  1.025E-06 4.010E-06
 
     Magnetic moment per site:
     atom:    1    charge:    0.8472    magn:   -0.0058    constr:    0.0000
     atom:    2    charge:    0.8475    magn:   -0.0058    constr:    0.0000
     atom:    3    charge:    0.8448    magn:   -0.0048    constr:    0.0000
     atom:    4    charge:    0.8453    magn:   -0.0099    constr:    0.0000
     atom:    5    charge:    0.8455    magn:   -0.0099    constr:    0.0000
     atom:    6    charge:    0.8449    magn:   -0.0048    constr:    0.0000
     atom:    7    charge:    0.4979    magn:    0.0001    constr:    0.0000
     atom:    8    charge:    0.4972    magn:    0.0001    constr:    0.0000
     atom:    9    charge:    0.4957    magn:    0.0000    constr:    0.0000
     atom:   10    charge:    0.4962    magn:    0.0001    constr:    0.0000
     atom:   11    charge:    0.4955    magn:    0.0000    constr:    0.0000
     atom:   12    charge:    0.4957    magn:    0.0000    constr:    0.0000
     atom:   13    charge:    5.8024    magn:    1.1241    constr:    0.0000

     total cpu time spent up to now is       59.1 secs

     The total energy is the sum of the following terms:

     one-electron contribution =    -702.85578450 Ry
     hartree contribution      =     350.70836697 Ry
     xc contribution           =     -30.72994717 Ry
     ewald contribution        =     268.46058250 Ry

     total energy              =    -114.41648690 Ry
     Harris-Foulkes estimate   =    -114.42066043 Ry
     estimated scf accuracy    <       0.00096146 Ry

     total magnetization       =     1.00 Bohr mag/cell
     absolute magnetization    =     1.65 Bohr mag/cell

     iteration # 15     ecut=    90.00 Ry     beta=0.70
     Davidson diagonalization with overlap
     ethr =  2.60E-06,  avg # of iterations =  9.5

     negative rho (up, down):  2.004E-06 7.816E-06
 
     Magnetic moment per site:
     atom:    1    charge:    0.8485    magn:   -0.0067    constr:    0.0000
     atom:    2    charge:    0.8488    magn:   -0.0067    constr:    0.0000
     atom:    3    charge:    0.8443    magn:   -0.0030    constr:    0.0000
     atom:    4    charge:    0.8459    magn:   -0.0100    constr:    0.0000
     atom:    5    charge:    0.8461    magn:   -0.0100    constr:    0.0000
     atom:    6    charge:    0.8443    magn:   -0.0030    constr:    0.0000
     atom:    7    charge:    0.4978    magn:    0.0002    constr:    0.0000
     atom:    8    charge:    0.4971    magn:    0.0003    constr:    0.0000
     atom:    9    charge:    0.4955    magn:    0.0000    constr:    0.0000
     atom:   10    charge:    0.4960    magn:    0.0002    constr:    0.0000
     atom:   11    charge:    0.4953    magn:    0.0001    constr:    0.0000
     atom:   12    charge:    0.4955    magn:    0.0000    constr:    0.0000
     atom:   13    charge:    5.8056    magn:    1.1112    constr:    0.0000

     total cpu time spent up to now is       62.5 secs

     The total energy is the sum of the following terms:

     one-electron contribution =    -702.81062620 Ry
     hartree contribution      =     350.71136167 Ry
     xc contribution           =     -30.74058055 Ry
     ewald contribution        =     268.46058250 Ry

     total energy              =    -114.41637636 Ry
     Harris-Foulkes estimate   =    -114.41865051 Ry
     estimated scf accuracy    <       0.00073998 Ry

     total magnetization       =     1.00 Bohr mag/cell
     absolute magnetization    =     1.56 Bohr mag/cell

     iteration # 16     ecut=    90.00 Ry     beta=0.70
     Davidson diagonalization with overlap
     ethr =  2.00E-06,  avg # of iterations =  8.5

     negative rho (up, down):  2.131E-06 8.939E-06
 
     Magnetic moment per site:
     atom:    1    charge:    0.8488    magn:   -0.0067    constr:    0.0000
     atom:    2    charge:    0.8491    magn:   -0.0067    constr:    0.0000
     atom:    3    charge:    0.8444    magn:   -0.0028    constr:    0.0000
     atom:    4    charge:    0.8462    magn:   -0.0099    constr:    0.0000
     atom:    5    charge:    0.8464    magn:   -0.0099    constr:    0.0000
     atom:    6    charge:    0.8444    magn:   -0.0029    constr:    0.0000
     atom:    7    charge:    0.4977    magn:    0.0002    constr:    0.0000
     atom:    8    charge:    0.4970    magn:    0.0002    constr:    0.0000
     atom:    9    charge:    0.4954    magn:    0.0000    constr:    0.0000
     atom:   10    charge:    0.4959    magn:    0.0001    constr:    0.0000
     atom:   11    charge:    0.4952    magn:    0.0001    constr:    0.0000
     atom:   12    charge:    0.4954    magn:    0.0000    constr:    0.0000
     atom:   13    charge:    5.8058    magn:    1.1098    constr:    0.0000

     total cpu time spent up to now is       65.8 secs

     The total energy is the sum of the following terms:

     one-electron contribution =    -702.80247352 Ry
     hartree contribution      =     350.72631058 Ry
     xc contribution           =     -30.74351304 Ry
     ewald contribution        =     268.46058250 Ry

     total energy              =    -114.41708983 Ry
     Harris-Foulkes estimate   =    -114.41746130 Ry
     estimated scf accuracy    <       0.00079179 Ry

     total magnetization       =     1.00 Bohr mag/cell
     absolute magnetization    =     1.54 Bohr mag/cell

     iteration # 17     ecut=    90.00 Ry     beta=0.70
     Davidson diagonalization with overlap
     ethr =  2.00E-06,  avg # of iterations =  4.5

     negative rho (up, down):  5.590E-06 1.425E-04
 
     Magnetic moment per site:
     atom:    1    charge:    0.8485    magn:   -0.0086    constr:    0.0000
     atom:    2    charge:    0.8488    magn:   -0.0086    constr:    0.0000
     atom:    3    charge:    0.8423    magn:   -0.0011    constr:    0.0000
     atom:    4    charge:    0.8448    magn:   -0.0117    constr:    0.0000
     atom:    5    charge:    0.8450    magn:   -0.0118    constr:    0.0000
     atom:    6    charge:    0.8423    magn:   -0.0013    constr:    0.0000
     atom:    7    charge:    0.4984    magn:    0.0008    constr:    0.0000
     atom:    8    charge:    0.4977    magn:    0.0009    constr:    0.0000
     atom:    9    charge:    0.4963    magn:    0.0001    constr:    0.0000
     atom:   10    charge:    0.4963    magn:    0.0008    constr:    0.0000
     atom:   11    charge:    0.4956    magn:    0.0007    constr:    0.0000
     atom:   12    charge:    0.4963    magn:    0.0001    constr:    0.0000
     atom:   13    charge:    5.8036    magn:    1.1136    constr:    0.0000

     total cpu time spent up to now is       68.0 secs

     The total energy is the sum of the following terms:

     one-electron contribution =    -702.77707339 Ry
     hartree contribution      =     350.56474313 Ry
     xc contribution           =     -30.74520666 Ry
     ewald contribution        =     268.46058250 Ry

     total energy              =    -114.41545937 Ry
     Harris-Foulkes estimate   =    -114.41715116 Ry
     estimated scf accuracy    <       0.00090253 Ry

     total magnetization       =     1.00 Bohr mag/cell
     absolute magnetization    =     1.52 Bohr mag/cell

     iteration # 18     ecut=    90.00 Ry     beta=0.70
     Davidson diagonalization with overlap
     ethr =  2.00E-06,  avg # of iterations = 12.5

     negative rho (up, down):  8.517E-06 3.394E-04
 
     Magnetic moment per site:
     atom:    1    charge:    0.8488    magn:   -0.0096    constr:    0.0000
     atom:    2    charge:    0.8490    magn:   -0.0096    constr:    0.0000
     atom:    3    charge:    0.8436    magn:   -0.0019    constr:    0.0000
     atom:    4    charge:    0.8450    magn:   -0.0134    constr:    0.0000
     atom:    5    charge:    0.8452    magn:   -0.0134    constr:    0.0000
     atom:    6    charge:    0.8436    magn:   -0.0021    constr:    0.0000
     atom:    7    charge:    0.4983    magn:    0.0010    constr:    0.0000
     atom:    8    charge:    0.4976    magn:    0.0010    constr:    0.0000
     atom:    9    charge:    0.4961    magn:    0.0001    constr:    0.0000
     atom:   10    charge:    0.4961    magn:    0.0010    constr:    0.0000
     atom:   11    charge:    0.4954    magn:    0.0009    constr:    0.0000
     atom:   12    charge:    0.4962    magn:    0.0001    constr:    0.0000
     atom:   13    charge:    5.7962    magn:    1.1383    constr:    0.0000

     total cpu time spent up to now is       72.3 secs

     The total energy is the sum of the following terms:

     one-electron contribution =    -703.37906888 Ry
     hartree contribution      =     350.62134637 Ry
     xc contribution           =     -30.75932446 Ry
     ewald contribution        =     268.46058250 Ry

     total energy              =    -114.41562743 Ry
     Harris-Foulkes estimate   =    -114.41726464 Ry
     estimated scf accuracy    <       0.01296265 Ry

     total magnetization       =     1.00 Bohr mag/cell
     absolute magnetization    =     1.73 Bohr mag/cell

     iteration # 19     ecut=    90.00 Ry     beta=0.70
     Davidson diagonalization with overlap
     ethr =  2.00E-06,  avg # of iterations =  9.0

     negative rho (up, down):  2.839E-06 5.597E-03
 
     Magnetic moment per site:
     atom:    1    charge:    0.8440    magn:   -0.0056    constr:    0.0000
     atom:    2    charge:    0.8442    magn:   -0.0057    constr:    0.0000
     atom:    3    charge:    0.8473    magn:   -0.0116    constr:    0.0000
     atom:    4    charge:    0.8439    magn:   -0.0144    constr:    0.0000
     atom:    5    charge:    0.8441    magn:   -0.0144    constr:    0.0000
     atom:    6    charge:    0.8474    magn:   -0.0117    constr:    0.0000
     atom:    7    charge:    0.4983    magn:    0.0006    constr:    0.0000
     atom:    8    charge:    0.4976    magn:    0.0006    constr:    0.0000
     atom:    9    charge:    0.4963    magn:    0.0003    constr:    0.0000
     atom:   10    charge:    0.4967    magn:    0.0008    constr:    0.0000
     atom:   11    charge:    0.4960    magn:    0.0008    constr:    0.0000
     atom:   12    charge:    0.4963    magn:    0.0003    constr:    0.0000
     atom:   13    charge:    5.7851    magn:    1.2145    constr:    0.0000

     total cpu time spent up to now is       75.8 secs

     The total energy is the sum of the following terms:

     one-electron contribution =    -703.12452483 Ry
     hartree contribution      =     350.71162055 Ry
     xc contribution           =     -30.80775110 Ry
     ewald contribution        =     268.46058250 Ry

     total energy              =    -114.39094117 Ry
     Harris-Foulkes estimate   =    -114.41725418 Ry
     estimated scf accuracy    <       0.00645942 Ry

     total magnetization       =     1.00 Bohr mag/cell
     absolute magnetization    =     1.61 Bohr mag/cell

     iteration # 20     ecut=    90.00 Ry     beta=0.70
     Davidson diagonalization with overlap
     ethr =  2.00E-06,  avg # of iterations = 15.0

     negative rho (up, down):  3.243E-07 6.147E-06
 
     Magnetic moment per site:
     atom:    1    charge:    0.8454    magn:   -0.0055    constr:    0.0000
     atom:    2    charge:    0.8457    magn:   -0.0055    constr:    0.0000
     atom:    3    charge:    0.8451    magn:   -0.0085    constr:    0.0000
     atom:    4    charge:    0.8439    magn:   -0.0120    constr:    0.0000
     atom:    5    charge:    0.8441    magn:   -0.0120    constr:    0.0000
     atom:    6    charge:    0.8451    magn:   -0.0085    constr:    0.0000
     atom:    7    charge:    0.4983    magn:    0.0004    constr:    0.0000
     atom:    8    charge:    0.4976    magn:    0.0004    constr:    0.0000
     atom:    9    charge:    0.4963    magn:    0.0003    constr:    0.0000
     atom:   10    charge:    0.4967    magn:    0.0005    constr:    0.0000
     atom:   11    charge:    0.4960    magn:    0.0005    constr:    0.0000
     atom:   12    charge:    0.4963    magn:    0.0002    constr:    0.0000
     atom:   13    charge:    5.7960    magn:    1.1677    constr:    0.0000

     total cpu time spent up to now is       80.8 secs

     The total energy is the sum of the following terms:

     one-electron contribution =    -703.05587641 Ry
     hartree contribution      =     350.65867823 Ry
     xc contribution           =     -30.73716476 Ry
     ewald contribution        =     268.46058250 Ry

     total energy              =    -114.41750790 Ry
     Harris-Foulkes estimate   =    -114.42232898 Ry
     estimated scf accuracy    <       0.01505494 Ry

     total magnetization       =     1.00 Bohr mag/cell
     absolute magnetization    =     1.58 Bohr mag/cell

     iteration # 21     ecut=    90.00 Ry     beta=0.70
     Davidson diagonalization with overlap
     ethr =  2.00E-06,  avg # of iterations = 15.5

     negative rho (up, down):  2.019E-07 2.365E-06
 
     Magnetic moment per site:
     atom:    1    charge:    0.8457    magn:   -0.0051    constr:    0.0000
     atom:    2    charge:    0.8459    magn:   -0.0051    constr:    0.0000
     atom:    3    charge:    0.8449    magn:   -0.0089    constr:    0.0000
     atom:    4    charge:    0.8439    magn:   -0.0116    constr:    0.0000
     atom:    5    charge:    0.8441    magn:   -0.0116    constr:    0.0000
     atom:    6    charge:    0.8449    magn:   -0.0089    constr:    0.0000
     atom:    7    charge:    0.4982    magn:    0.0004    constr:    0.0000
     atom:    8    charge:    0.4975    magn:    0.0004    constr:    0.0000
     atom:    9    charge:    0.4962    magn:    0.0003    constr:    0.0000
     atom:   10    charge:    0.4967    magn:    0.0004    constr:    0.0000
     atom:   11    charge:    0.4959    magn:    0.0004    constr:    0.0000
     atom:   12    charge:    0.4962    magn:    0.0003    constr:    0.0000
     atom:   13    charge:    5.7975    magn:    1.1649    constr:    0.0000

     total cpu time spent up to now is       85.4 secs

     The total energy is the sum of the following terms:

     one-electron contribution =    -703.10005716 Ry
     hartree contribution      =     350.66062551 Ry
     xc contribution           =     -30.73459137 Ry
     ewald contribution        =     268.46058250 Ry

     total energy              =    -114.42296968 Ry
     Harris-Foulkes estimate   =    -114.42270193 Ry
     estimated scf accuracy    <       0.00173425 Ry

     total magnetization       =     1.00 Bohr mag/cell
     absolute magnetization    =     1.64 Bohr mag/cell

     iteration # 22     ecut=    90.00 Ry     beta=0.70
     Davidson diagonalization with overlap
     ethr =  2.00E-06,  avg # of iterations =  4.0

     negative rho (up, down):  3.258E-08 1.468E-07
 
     Magnetic moment per site:
     atom:    1    charge:    0.8459    magn:   -0.0036    constr:    0.0000
     atom:    2    charge:    0.8462    magn:   -0.0037    constr:    0.0000
     atom:    3    charge:    0.8452    magn:   -0.0108    constr:    0.0000
     atom:    4    charge:    0.8443    magn:   -0.0106    constr:    0.0000
     atom:    5    charge:    0.8445    magn:   -0.0106    constr:    0.0000
     atom:    6    charge:    0.8452    magn:   -0.0108    constr:    0.0000
     atom:    7    charge:    0.4982    magn:    0.0002    constr:    0.0000
     atom:    8    charge:    0.4974    magn:    0.0002    constr:    0.0000
     atom:    9    charge:    0.4960    magn:    0.0004    constr:    0.0000
     atom:   10    charge:    0.4965    magn:    0.0004    constr:    0.0000
     atom:   11    charge:    0.4958    magn:    0.0004    constr:    0.0000
     atom:   12    charge:    0.4961    magn:    0.0004    constr:    0.0000
     atom:   13    charge:    5.7999    magn:    1.1600    constr:    0.0000

     total cpu time spent up to now is       87.6 secs

     The total energy is the sum of the following terms:

     one-electron contribution =    -703.14262972 Ry
     hartree contribution      =     350.70670840 Ry
     xc contribution           =     -30.73364584 Ry
     ewald contribution        =     268.46058250 Ry

     total energy              =    -114.42300953 Ry
     Harris-Foulkes estimate   =    -114.42304377 Ry
     estimated scf accuracy    <       0.00216835 Ry

     total magnetization       =     1.00 Bohr mag/cell
     absolute magnetization    =     1.66 Bohr mag/cell

     iteration # 23     ecut=    90.00 Ry     beta=0.70
     Davidson diagonalization with overlap
     ethr =  2.00E-06,  avg # of iterations =  7.0

     negative rho (up, down):  3.512E-08 1.728E-07
 
     Magnetic moment per site:
     atom:    1    charge:    0.8459    magn:   -0.0036    constr:    0.0000
     atom:    2    charge:    0.8461    magn:   -0.0037    constr:    0.0000
     atom:    3    charge:    0.8453    magn:   -0.0109    constr:    0.0000
     atom:    4    charge:    0.8443    magn:   -0.0106    constr:    0.0000
     atom:    5    charge:    0.8445    magn:   -0.0106    constr:    0.0000
     atom:    6    charge:    0.8453    magn:   -0.0109    constr:    0.0000
     atom:    7    charge:    0.4982    magn:    0.0002    constr:    0.0000
     atom:    8    charge:    0.4975    magn:    0.0002    constr:    0.0000
     atom:    9    charge:    0.4960    magn:    0.0004    constr:    0.0000
     atom:   10    charge:    0.4965    magn:    0.0004    constr:    0.0000
     atom:   11    charge:    0.4958    magn:    0.0004    constr:    0.0000
     atom:   12    charge:    0.4961    magn:    0.0004    constr:    0.0000
     atom:   13    charge:    5.7998    magn:    1.1606    constr:    0.0000

     total cpu time spent up to now is       90.6 secs

     The total energy is the sum of the following terms:

     one-electron contribution =    -703.17015762 Ry
     hartree contribution      =     350.70656608 Ry
     xc contribution           =     -30.73412615 Ry
     ewald contribution        =     268.46058250 Ry

     total energy              =    -114.42402669 Ry
     Harris-Foulkes estimate   =    -114.42400971 Ry
     estimated scf accuracy    <       0.00264765 Ry

     total magnetization       =     1.00 Bohr mag/cell
     absolute magnetization    =     1.69 Bohr mag/cell

     iteration # 24     ecut=    90.00 Ry     beta=0.70
     Davidson diagonalization with overlap
     ethr =  2.00E-06,  avg # of iterations =  1.0

     negative rho (up, down):  4.078E-08 2.620E-07
 
     Magnetic moment per site:
     atom:    1    charge:    0.8459    magn:   -0.0046    constr:    0.0000
     atom:    2    charge:    0.8461    magn:   -0.0046    constr:    0.0000
     atom:    3    charge:    0.8451    magn:   -0.0092    constr:    0.0000
     atom:    4    charge:    0.8444    magn:   -0.0111    constr:    0.0000
     atom:    5    charge:    0.8446    magn:   -0.0111    constr:    0.0000
     atom:    6    charge:    0.8451    magn:   -0.0092    constr:    0.0000
     atom:    7    charge:    0.4982    magn:    0.0003    constr:    0.0000
     atom:    8    charge:    0.4975    magn:    0.0003    constr:    0.0000
     atom:    9    charge:    0.4961    magn:    0.0003    constr:    0.0000
     atom:   10    charge:    0.4965    magn:    0.0004    constr:    0.0000
     atom:   11    charge:    0.4958    magn:    0.0004    constr:    0.0000
     atom:   12    charge:    0.4961    magn:    0.0003    constr:    0.0000
     atom:   13    charge:    5.7986    magn:    1.1575    constr:    0.0000

     total cpu time spent up to now is       92.3 secs

     The total energy is the sum of the following terms:

     one-electron contribution =    -703.16413284 Ry
     hartree contribution      =     350.69010156 Ry
     xc contribution           =     -30.73137795 Ry
     ewald contribution        =     268.46058250 Ry

     total energy              =    -114.42229304 Ry
     Harris-Foulkes estimate   =    -114.42403354 Ry
     estimated scf accuracy    <       0.00257307 Ry

     total magnetization       =     1.00 Bohr mag/cell
     absolute magnetization    =     1.69 Bohr mag/cell

     iteration # 25     ecut=    90.00 Ry     beta=0.70
     Davidson diagonalization with overlap
     ethr =  2.00E-06,  avg # of iterations =  9.5

     negative rho (up, down):  5.863E-07 2.393E-06
 
     Magnetic moment per site:
     atom:    1    charge:    0.8456    magn:   -0.0038    constr:    0.0000
     atom:    2    charge:    0.8459    magn:   -0.0039    constr:    0.0000
     atom:    3    charge:    0.8457    magn:   -0.0107    constr:    0.0000
     atom:    4    charge:    0.8448    magn:   -0.0109    constr:    0.0000
     atom:    5    charge:    0.8451    magn:   -0.0110    constr:    0.0000
     atom:    6    charge:    0.8457    magn:   -0.0107    constr:    0.0000
     atom:    7    charge:    0.4982    magn:    0.0003    constr:    0.0000
     atom:    8    charge:    0.4975    magn:    0.0003    constr:    0.0000
     atom:    9    charge:    0.4960    magn:    0.0005    constr:    0.0000
     atom:   10    charge:    0.4965    magn:    0.0004    constr:    0.0000
     atom:   11    charge:    0.4958    magn:    0.0004    constr:    0.0000
     atom:   12    charge:    0.4960    magn:    0.0005    constr:    0.0000
     atom:   13    charge:    5.7957    magn:    1.1622    constr:    0.0000

     total cpu time spent up to now is       95.7 secs

     The total energy is the sum of the following terms:

     one-electron contribution =    -703.09613607 Ry
     hartree contribution      =     350.69585865 Ry
     xc contribution           =     -30.73777315 Ry
     ewald contribution        =     268.46058250 Ry

     total energy              =    -114.42304683 Ry
     Harris-Foulkes estimate   =    -114.42306925 Ry
     estimated scf accuracy    <       0.00186542 Ry

     total magnetization       =     1.00 Bohr mag/cell
     absolute magnetization    =     1.66 Bohr mag/cell

     iteration # 26     ecut=    90.00 Ry     beta=0.70
     Davidson diagonalization with overlap
     ethr =  2.00E-06,  avg # of iterations =  6.5

     negative rho (up, down):  1.577E-06 9.933E-06
 
     Magnetic moment per site:
     atom:    1    charge:    0.8452    magn:   -0.0029    constr:    0.0000
     atom:    2    charge:    0.8455    magn:   -0.0030    constr:    0.0000
     atom:    3    charge:    0.8463    magn:   -0.0122    constr:    0.0000
     atom:    4    charge:    0.8448    magn:   -0.0104    constr:    0.0000
     atom:    5    charge:    0.8450    magn:   -0.0105    constr:    0.0000
     atom:    6    charge:    0.8463    magn:   -0.0122    constr:    0.0000
     atom:    7    charge:    0.4983    magn:    0.0003    constr:    0.0000
     atom:    8    charge:    0.4976    magn:    0.0003    constr:    0.0000
     atom:    9    charge:    0.4960    magn:    0.0006    constr:    0.0000
     atom:   10    charge:    0.4966    magn:    0.0004    constr:    0.0000
     atom:   11    charge:    0.4959    magn:    0.0004    constr:    0.0000
     atom:   12    charge:    0.4960    magn:    0.0006    constr:    0.0000
     atom:   13    charge:    5.7953    magn:    1.1622    constr:    0.0000

     total cpu time spent up to now is       98.6 secs

     The total energy is the sum of the following terms:

     one-electron contribution =    -702.96507551 Ry
     hartree contribution      =     350.70097548 Ry
     xc contribution           =     -30.74254188 Ry
     ewald contribution        =     268.46058250 Ry

     total energy              =    -114.42326141 Ry
     Harris-Foulkes estimate   =    -114.42324696 Ry
     estimated scf accuracy    <       0.00078711 Ry

     total magnetization       =     1.00 Bohr mag/cell
     absolute magnetization    =     1.58 Bohr mag/cell

     iteration # 27     ecut=    90.00 Ry     beta=0.70
     Davidson diagonalization with overlap
     ethr =  2.00E-06,  avg # of iterations =  7.5

     negative rho (up, down):  3.329E-06 7.652E-06
 
     Magnetic moment per site:
     atom:    1    charge:    0.8450    magn:   -0.0027    constr:    0.0000
     atom:    2    charge:    0.8453    magn:   -0.0028    constr:    0.0000
     atom:    3    charge:    0.8464    magn:   -0.0123    constr:    0.0000
     atom:    4    charge:    0.8448    magn:   -0.0099    constr:    0.0000
     atom:    5    charge:    0.8451    magn:   -0.0100    constr:    0.0000
     atom:    6    charge:    0.8464    magn:   -0.0122    constr:    0.0000
     atom:    7    charge:    0.4983    magn:    0.0002    constr:    0.0000
     atom:    8    charge:    0.4976    magn:    0.0003    constr:    0.0000
     atom:    9    charge:    0.4961    magn:    0.0007    constr:    0.0000
     atom:   10    charge:    0.4966    magn:    0.0004    constr:    0.0000
     atom:   11    charge:    0.4959    magn:    0.0004    constr:    0.0000
     atom:   12    charge:    0.4961    magn:    0.0007    constr:    0.0000
     atom:   13    charge:    5.7962    magn:    1.1555    constr:    0.0000

     total cpu time spent up to now is      101.6 secs

     The total energy is the sum of the following terms:

     one-electron contribution =    -702.97960334 Ry
     hartree contribution      =     350.68738744 Ry
     xc contribution           =     -30.73587856 Ry
     ewald contribution        =     268.46058250 Ry

     total energy              =    -114.42384791 Ry
     Harris-Foulkes estimate   =    -114.42369799 Ry
     estimated scf accuracy    <       0.00088975 Ry

     total magnetization       =     1.00 Bohr mag/cell
     absolute magnetization    =     1.58 Bohr mag/cell

     iteration # 28     ecut=    90.00 Ry     beta=0.70
     Davidson diagonalization with overlap
     ethr =  2.00E-06,  avg # of iterations =  9.5

     negative rho (up, down):  6.499E-06 1.107E-05
 
     Magnetic moment per site:
     atom:    1    charge:    0.8447    magn:   -0.0024    constr:    0.0000
     atom:    2    charge:    0.8450    magn:   -0.0025    constr:    0.0000
     atom:    3    charge:    0.8466    magn:   -0.0126    constr:    0.0000
     atom:    4    charge:    0.8449    magn:   -0.0095    constr:    0.0000
     atom:    5    charge:    0.8451    magn:   -0.0096    constr:    0.0000
     atom:    6    charge:    0.8466    magn:   -0.0125    constr:    0.0000
     atom:    7    charge:    0.4984    magn:    0.0002    constr:    0.0000
     atom:    8    charge:    0.4977    magn:    0.0003    constr:    0.0000
     atom:    9    charge:    0.4962    magn:    0.0008    constr:    0.0000
     atom:   10    charge:    0.4966    magn:    0.0004    constr:    0.0000
     atom:   11    charge:    0.4959    magn:    0.0004    constr:    0.0000
     atom:   12    charge:    0.4962    magn:    0.0008    constr:    0.0000
     atom:   13    charge:    5.7968    magn:    1.1512    constr:    0.0000

     total cpu time spent up to now is      104.8 secs

     The total energy is the sum of the following terms:

     one-electron contribution =    -703.00562315 Ry
     hartree contribution      =     350.68092752 Ry
     xc contribution           =     -30.73062438 Ry
     ewald contribution        =     268.46058250 Ry

     total energy              =    -114.42403244 Ry
     Harris-Foulkes estimate   =    -114.42389223 Ry
     estimated scf accuracy    <       0.00063875 Ry

     total magnetization       =     1.00 Bohr mag/cell
     absolute magnetization    =     1.59 Bohr mag/cell

     iteration # 29     ecut=    90.00 Ry     beta=0.70
     Davidson diagonalization with overlap
     ethr =  1.73E-06,  avg # of iterations =  9.0

     negative rho (up, down):  4.950E-06 9.581E-06
 
     Magnetic moment per site:
     atom:    1    charge:    0.8449    magn:   -0.0029    constr:    0.0000
     atom:    2    charge:    0.8451    magn:   -0.0030    constr:    0.0000
     atom:    3    charge:    0.8464    magn:   -0.0118    constr:    0.0000
     atom:    4    charge:    0.8448    magn:   -0.0100    constr:    0.0000
     atom:    5    charge:    0.8451    magn:   -0.0101    constr:    0.0000
     atom:    6    charge:    0.8464    magn:   -0.0118    constr:    0.0000
     atom:    7    charge:    0.4984    magn:    0.0003    constr:    0.0000
     atom:    8    charge:    0.4977    magn:    0.0003    constr:    0.0000
     atom:    9    charge:    0.4962    magn:    0.0007    constr:    0.0000
     atom:   10    charge:    0.4967    magn:    0.0004    constr:    0.0000
     atom:   11    charge:    0.4960    magn:    0.0004    constr:    0.0000
     atom:   12    charge:    0.4962    magn:    0.0007    constr:    0.0000
     atom:   13    charge:    5.7945    magn:    1.1535    constr:    0.0000

     total cpu time spent up to now is      108.2 secs

     The total energy is the sum of the following terms:

     one-electron contribution =    -702.99886447 Ry
     hartree contribution      =     350.66179866 Ry
     xc contribution           =     -30.72947886 Ry
     ewald contribution        =     268.46058250 Ry

     total energy              =    -114.42331663 Ry
     Harris-Foulkes estimate   =    -114.42420923 Ry
     estimated scf accuracy    <       0.00064592 Ry

     total magnetization       =     1.00 Bohr mag/cell
     absolute magnetization    =     1.57 Bohr mag/cell

     iteration # 30     ecut=    90.00 Ry     beta=0.70
     Davidson diagonalization with overlap
     ethr =  1.73E-06,  avg # of iterations =  6.0

     negative rho (up, down):  5.143E-06 7.608E-06
 
     Magnetic moment per site:
     atom:    1    charge:    0.8451    magn:   -0.0024    constr:    0.0000
     atom:    2    charge:    0.8453    magn:   -0.0025    constr:    0.0000
     atom:    3    charge:    0.8467    magn:   -0.0128    constr:    0.0000
     atom:    4    charge:    0.8448    magn:   -0.0098    constr:    0.0000
     atom:    5    charge:    0.8450    magn:   -0.0099    constr:    0.0000
     atom:    6    charge:    0.8467    magn:   -0.0128    constr:    0.0000
     atom:    7    charge:    0.4984    magn:    0.0002    constr:    0.0000
     atom:    8    charge:    0.4977    magn:    0.0002    constr:    0.0000
     atom:    9    charge:    0.4961    magn:    0.0008    constr:    0.0000
     atom:   10    charge:    0.4966    magn:    0.0004    constr:    0.0000
     atom:   11    charge:    0.4959    magn:    0.0004    constr:    0.0000
     atom:   12    charge:    0.4961    magn:    0.0007    constr:    0.0000
     atom:   13    charge:    5.7955    magn:    1.1563    constr:    0.0000

     total cpu time spent up to now is      110.9 secs

     The total energy is the sum of the following terms:

     one-electron contribution =    -702.94534134 Ry
     hartree contribution      =     350.69858740 Ry
     xc contribution           =     -30.73213916 Ry
     ewald contribution        =     268.46058250 Ry

     total energy              =    -114.42375551 Ry
     Harris-Foulkes estimate   =    -114.42369692 Ry
     estimated scf accuracy    <       0.00101365 Ry

     total magnetization       =     1.00 Bohr mag/cell
     absolute magnetization    =     1.55 Bohr mag/cell

     iteration # 31     ecut=    90.00 Ry     beta=0.70
     Davidson diagonalization with overlap
     ethr =  1.73E-06,  avg # of iterations =  6.5

     negative rho (up, down):  7.566E-06 1.187E-05
 
     Magnetic moment per site:
     atom:    1    charge:    0.8453    magn:   -0.0035    constr:    0.0000
     atom:    2    charge:    0.8456    magn:   -0.0036    constr:    0.0000
     atom:    3    charge:    0.8462    magn:   -0.0114    constr:    0.0000
     atom:    4    charge:    0.8450    magn:   -0.0106    constr:    0.0000
     atom:    5    charge:    0.8453    magn:   -0.0108    constr:    0.0000
     atom:    6    charge:    0.8462    magn:   -0.0114    constr:    0.0000
     atom:    7    charge:    0.4983    magn:    0.0004    constr:    0.0000
     atom:    8    charge:    0.4976    magn:    0.0004    constr:    0.0000
     atom:    9    charge:    0.4962    magn:    0.0007    constr:    0.0000
     atom:   10    charge:    0.4965    magn:    0.0005    constr:    0.0000
     atom:   11    charge:    0.4959    magn:    0.0005    constr:    0.0000
     atom:   12    charge:    0.4962    magn:    0.0007    constr:    0.0000
     atom:   13    charge:    5.7932    magn:    1.1612    constr:    0.0000

     total cpu time spent up to now is      113.7 secs

     The total energy is the sum of the following terms:

     one-electron contribution =    -702.97618538 Ry
     hartree contribution      =     350.69306344 Ry
     xc contribution           =     -30.72843089 Ry
     ewald contribution        =     268.46058250 Ry

     total energy              =    -114.42348804 Ry
     Harris-Foulkes estimate   =    -114.42444255 Ry
     estimated scf accuracy    <       0.00083633 Ry

     total magnetization       =     1.00 Bohr mag/cell
     absolute magnetization    =     1.56 Bohr mag/cell

     iteration # 32     ecut=    90.00 Ry     beta=0.70
     Davidson diagonalization with overlap
     ethr =  1.73E-06,  avg # of iterations = 12.5

     negative rho (up, down):  1.855E-06 7.912E-05
 
     Magnetic moment per site:
     atom:    1    charge:    0.8466    magn:   -0.0035    constr:    0.0000
     atom:    2    charge:    0.8468    magn:   -0.0034    constr:    0.0000
     atom:    3    charge:    0.8474    magn:   -0.0133    constr:    0.0000
     atom:    4    charge:    0.8449    magn:   -0.0119    constr:    0.0000
     atom:    5    charge:    0.8448    magn:   -0.0121    constr:    0.0000
     atom:    6    charge:    0.8474    magn:   -0.0132    constr:    0.0000
     atom:    7    charge:    0.4979    magn:    0.0002    constr:    0.0000
     atom:    8    charge:    0.4972    magn:    0.0002    constr:    0.0000
     atom:    9    charge:    0.4959    magn:    0.0007    constr:    0.0000
     atom:   10    charge:    0.4962    magn:    0.0005    constr:    0.0000
     atom:   11    charge:    0.4955    magn:    0.0005    constr:    0.0000
     atom:   12    charge:    0.4959    magn:    0.0007    constr:    0.0000
     atom:   13    charge:    5.7967    magn:    1.1858    constr:    0.0000

     total cpu time spent up to now is      117.7 secs

     The total energy is the sum of the following terms:

     one-electron contribution =    -702.89300015 Ry
     hartree contribution      =     350.93096873 Ry
     xc contribution           =     -30.77217728 Ry
     ewald contribution        =     268.46058250 Ry

     total energy              =    -114.41212581 Ry
     Harris-Foulkes estimate   =    -114.42388495 Ry
     estimated scf accuracy    <       0.00172936 Ry

     total magnetization       =     1.00 Bohr mag/cell
     absolute magnetization    =     1.54 Bohr mag/cell

     iteration # 33     ecut=    90.00 Ry     beta=0.70
     Davidson diagonalization with overlap
     WARNING:     1 eigenvalues not converged
     c_bands:  1 eigenvalues not converged
     ethr =  1.73E-06,  avg # of iterations = 14.5

     negative rho (up, down):  1.246E-07 8.662E-08
 
     Magnetic moment per site:
     atom:    1    charge:    0.8462    magn:   -0.0043    constr:    0.0000
     atom:    2    charge:    0.8464    magn:   -0.0044    constr:    0.0000
     atom:    3    charge:    0.8458    magn:   -0.0105    constr:    0.0000
     atom:    4    charge:    0.8450    magn:   -0.0113    constr:    0.0000
     atom:    5    charge:    0.8453    magn:   -0.0114    constr:    0.0000
     atom:    6    charge:    0.8458    magn:   -0.0105    constr:    0.0000
     atom:    7    charge:    0.4981    magn:    0.0003    constr:    0.0000
     atom:    8    charge:    0.4974    magn:    0.0003    constr:    0.0000
     atom:    9    charge:    0.4960    magn:    0.0005    constr:    0.0000
     atom:   10    charge:    0.4964    magn:    0.0005    constr:    0.0000
     atom:   11    charge:    0.4957    magn:    0.0005    constr:    0.0000
     atom:   12    charge:    0.4960    magn:    0.0005    constr:    0.0000
     atom:   13    charge:    5.7981    magn:    1.1617    constr:    0.0000

     total cpu time spent up to now is      122.3 secs

     The total energy is the sum of the following terms:

     one-electron contribution =    -702.69171356 Ry
     hartree contribution      =     350.79727165 Ry
     xc contribution           =     -30.73620695 Ry
     ewald contribution        =     268.46058250 Ry

     total energy              =    -114.42322846 Ry
     Harris-Foulkes estimate   =    -114.42515916 Ry
     estimated scf accuracy    <       0.00373861 Ry

     total magnetization       =     1.00 Bohr mag/cell
     absolute magnetization    =     1.52 Bohr mag/cell

     iteration # 34     ecut=    90.00 Ry     beta=0.70
     Davidson diagonalization with overlap
     WARNING:     1 eigenvalues not converged
     c_bands:  1 eigenvalues not converged
     ethr =  1.73E-06,  avg # of iterations = 13.0

     negative rho (up, down):  4.106E-07 3.908E-07
 
     Magnetic moment per site:
     atom:    1    charge:    0.8461    magn:   -0.0042    constr:    0.0000
     atom:    2    charge:    0.8463    magn:   -0.0042    constr:    0.0000
     atom:    3    charge:    0.8460    magn:   -0.0107    constr:    0.0000
     atom:    4    charge:    0.8451    magn:   -0.0113    constr:    0.0000
     atom:    5    charge:    0.8454    magn:   -0.0115    constr:    0.0000
     atom:    6    charge:    0.8461    magn:   -0.0106    constr:    0.0000
     atom:    7    charge:    0.4980    magn:    0.0003    constr:    0.0000
     atom:    8    charge:    0.4973    magn:    0.0003    constr:    0.0000
     atom:    9    charge:    0.4961    magn:    0.0006    constr:    0.0000
     atom:   10    charge:    0.4964    magn:    0.0005    constr:    0.0000
     atom:   11    charge:    0.4957    magn:    0.0005    constr:    0.0000
     atom:   12    charge:    0.4961    magn:    0.0006    constr:    0.0000
     atom:   13    charge:    5.7976    magn:    1.1624    constr:    0.0000

     total cpu time spent up to now is      126.7 secs

     The total energy is the sum of the following terms:

     one-electron contribution =    -702.82953948 Ry
     hartree contribution      =     350.80233661 Ry
     xc contribution           =     -30.73736385 Ry
     ewald contribution        =     268.46058250 Ry

     total energy              =    -114.42534243 Ry
     Harris-Foulkes estimate   =    -114.42538217 Ry
     estimated scf accuracy    <       0.00102795 Ry

     total magnetization       =     1.00 Bohr mag/cell
     absolute magnetization    =     1.55 Bohr mag/cell

     iteration # 35     ecut=    90.00 Ry     beta=0.70
     Davidson diagonalization with overlap
     ethr =  1.73E-06,  avg # of iterations =  1.0

     negative rho (up, down):  4.111E-07 3.483E-07
 
     Magnetic moment per site:
     atom:    1    charge:    0.8460    magn:   -0.0042    constr:    0.0000
     atom:    2    charge:    0.8463    magn:   -0.0043    constr:    0.0000
     atom:    3    charge:    0.8460    magn:   -0.0107    constr:    0.0000
     atom:    4    charge:    0.8450    magn:   -0.0114    constr:    0.0000
     atom:    5    charge:    0.8453    magn:   -0.0116    constr:    0.0000
     atom:    6    charge:    0.8460    magn:   -0.0106    constr:    0.0000
     atom:    7    charge:    0.4980    magn:    0.0003    constr:    0.0000
     atom:    8    charge:    0.4973    magn:    0.0003    constr:    0.0000
     atom:    9    charge:    0.4961    magn:    0.0006    constr:    0.0000
     atom:   10    charge:    0.4964    magn:    0.0005    constr:    0.0000
     atom:   11    charge:    0.4957    magn:    0.0005    constr:    0.0000
     atom:   12    charge:    0.4961    magn:    0.0006    constr:    0.0000
     atom:   13    charge:    5.7975    magn:    1.1631    constr:    0.0000

     total cpu time spent up to now is      128.4 secs

     The total energy is the sum of the following terms:

     one-electron contribution =    -702.80799690 Ry
     hartree contribution      =     350.79842422 Ry
     xc contribution           =     -30.73725760 Ry
     ewald contribution        =     268.46058250 Ry

     total energy              =    -114.42539287 Ry
     Harris-Foulkes estimate   =    -114.42535755 Ry
     estimated scf accuracy    <       0.00130220 Ry

     total magnetization       =     1.00 Bohr mag/cell
     absolute magnetization    =     1.54 Bohr mag/cell

     iteration # 36     ecut=    90.00 Ry     beta=0.70
     Davidson diagonalization with overlap
     ethr =  1.73E-06,  avg # of iterations =  1.0

     negative rho (up, down):  3.846E-07 1.351E-07
 
     Magnetic moment per site:
     atom:    1    charge:    0.8459    magn:   -0.0052    constr:    0.0000
     atom:    2    charge:    0.8461    magn:   -0.0052    constr:    0.0000
     atom:    3    charge:    0.8464    magn:   -0.0099    constr:    0.0000
     atom:    4    charge:    0.8445    magn:   -0.0121    constr:    0.0000
     atom:    5    charge:    0.8447    magn:   -0.0123    constr:    0.0000
     atom:    6    charge:    0.8464    magn:   -0.0098    constr:    0.0000
     atom:    7    charge:    0.4981    magn:    0.0004    constr:    0.0000
     atom:    8    charge:    0.4974    magn:    0.0004    constr:    0.0000
     atom:    9    charge:    0.4961    magn:    0.0004    constr:    0.0000
     atom:   10    charge:    0.4964    magn:    0.0006    constr:    0.0000
     atom:   11    charge:    0.4957    magn:    0.0006    constr:    0.0000
     atom:   12    charge:    0.4961    magn:    0.0004    constr:    0.0000
     atom:   13    charge:    5.7980    magn:    1.1707    constr:    0.0000

     total cpu time spent up to now is      130.1 secs

     The total energy is the sum of the following terms:

     one-electron contribution =    -702.81480037 Ry
     hartree contribution      =     350.78699580 Ry
     xc contribution           =     -30.73749914 Ry
     ewald contribution        =     268.46058250 Ry

     total energy              =    -114.42477834 Ry
     Harris-Foulkes estimate   =    -114.42539632 Ry
     estimated scf accuracy    <       0.00121392 Ry

     total magnetization       =     1.00 Bohr mag/cell
     absolute magnetization    =     1.54 Bohr mag/cell

     iteration # 37     ecut=    90.00 Ry     beta=0.70
     Davidson diagonalization with overlap
     ethr =  1.73E-06,  avg # of iterations =  6.0

     negative rho (up, down):  2.511E-07 6.348E-08
 
     Magnetic moment per site:
     atom:    1    charge:    0.8455    magn:   -0.0047    constr:    0.0000
     atom:    2    charge:    0.8457    magn:   -0.0047    constr:    0.0000
     atom:    3    charge:    0.8465    magn:   -0.0106    constr:    0.0000
     atom:    4    charge:    0.8444    magn:   -0.0116    constr:    0.0000
     atom:    5    charge:    0.8447    magn:   -0.0118    constr:    0.0000
     atom:    6    charge:    0.8466    magn:   -0.0105    constr:    0.0000
     atom:    7    charge:    0.4982    magn:    0.0004    constr:    0.0000
     atom:    8    charge:    0.4975    magn:    0.0004    constr:    0.0000
     atom:    9    charge:    0.4961    magn:    0.0004    constr:    0.0000
     atom:   10    charge:    0.4964    magn:    0.0006    constr:    0.0000
     atom:   11    charge:    0.4957    magn:    0.0006    constr:    0.0000
     atom:   12    charge:    0.4961    magn:    0.0004    constr:    0.0000
     atom:   13    charge:    5.7996    magn:    1.1651    constr:    0.0000

     total cpu time spent up to now is      132.9 secs

     The total energy is the sum of the following terms:

     one-electron contribution =    -702.85833326 Ry
     hartree contribution      =     350.79783322 Ry
     xc contribution           =     -30.74183109 Ry
     ewald contribution        =     268.46058250 Ry

     total energy              =    -114.42466097 Ry
     Harris-Foulkes estimate   =    -114.42503211 Ry
     estimated scf accuracy    <       0.00058362 Ry

     total magnetization       =     1.00 Bohr mag/cell
     absolute magnetization    =     1.58 Bohr mag/cell

     iteration # 38     ecut=    90.00 Ry     beta=0.70
     Davidson diagonalization with overlap
     WARNING:     1 eigenvalues not converged
     c_bands:  1 eigenvalues not converged
     ethr =  1.58E-06,  avg # of iterations = 13.0

     negative rho (up, down):  1.733E-07 8.784E-07
 
     Magnetic moment per site:
     atom:    1    charge:    0.8454    magn:   -0.0050    constr:    0.0000
     atom:    2    charge:    0.8456    magn:   -0.0049    constr:    0.0000
     atom:    3    charge:    0.8467    magn:   -0.0103    constr:    0.0000
     atom:    4    charge:    0.8443    magn:   -0.0118    constr:    0.0000
     atom:    5    charge:    0.8445    magn:   -0.0120    constr:    0.0000
     atom:    6    charge:    0.8467    magn:   -0.0103    constr:    0.0000
     atom:    7    charge:    0.4982    magn:    0.0004    constr:    0.0000
     atom:    8    charge:    0.4975    magn:    0.0004    constr:    0.0000
     atom:    9    charge:    0.4961    magn:    0.0003    constr:    0.0000
     atom:   10    charge:    0.4964    magn:    0.0006    constr:    0.0000
[...]
     absolute magnetization    =     1.57 Bohr mag/cell

     iteration # 64     ecut=    90.00 Ry     beta=0.70
     Davidson diagonalization with overlap
     ethr =  1.77E-12,  avg # of iterations =  5.5
 
     Magnetic moment per site:
     atom:    1    charge:    0.8454    magn:   -0.0041    constr:    0.0000
     atom:    2    charge:    0.8456    magn:   -0.0041    constr:    0.0000
     atom:    3    charge:    0.8464    magn:   -0.0103    constr:    0.0000
     atom:    4    charge:    0.8445    magn:   -0.0097    constr:    0.0000
     atom:    5    charge:    0.8448    magn:   -0.0097    constr:    0.0000
     atom:    6    charge:    0.8464    magn:   -0.0103    constr:    0.0000
     atom:    7    charge:    0.4983    magn:    0.0002    constr:    0.0000
     atom:    8    charge:    0.4976    magn:    0.0002    constr:    0.0000
     atom:    9    charge:    0.4960    magn:    0.0004    constr:    0.0000
     atom:   10    charge:    0.4964    magn:    0.0004    constr:    0.0000
     atom:   11    charge:    0.4957    magn:    0.0004    constr:    0.0000
     atom:   12    charge:    0.4960    magn:    0.0004    constr:    0.0000
     atom:   13    charge:    5.8057    magn:    1.1350    constr:    0.0000

     total cpu time spent up to now is      244.6 secs

     The total energy is the sum of the following terms:

     one-electron contribution =    -702.97531570 Ry
     hartree contribution      =     350.82817672 Ry
     xc contribution           =     -30.73980330 Ry
     ewald contribution        =     268.46058250 Ry

     total energy              =    -114.42623688 Ry
     Harris-Foulkes estimate   =    -114.42623688 Ry
     estimated scf accuracy    <          1.4E-09 Ry

     total magnetization       =     1.00 Bohr mag/cell
     absolute magnetization    =     1.57 Bohr mag/cell

     iteration # 65     ecut=    90.00 Ry     beta=0.70
     Davidson diagonalization with overlap
     WARNING:     1 eigenvalues not converged
     c_bands:  1 eigenvalues not converged
     ethr =  1.77E-12,  avg # of iterations = 13.0
 
     Magnetic moment per site:
     atom:    1    charge:    0.8454    magn:   -0.0041    constr:    0.0000
     atom:    2    charge:    0.8456    magn:   -0.0041    constr:    0.0000
     atom:    3    charge:    0.8464    magn:   -0.0103    constr:    0.0000
     atom:    4    charge:    0.8445    magn:   -0.0097    constr:    0.0000
     atom:    5    charge:    0.8448    magn:   -0.0097    constr:    0.0000
     atom:    6    charge:    0.8464    magn:   -0.0103    constr:    0.0000
     atom:    7    charge:    0.4983    magn:    0.0002    constr:    0.0000
     atom:    8    charge:    0.4976    magn:    0.0002    constr:    0.0000
     atom:    9    charge:    0.4960    magn:    0.0004    constr:    0.0000
     atom:   10    charge:    0.4964    magn:    0.0004    constr:    0.0000
     atom:   11    charge:    0.4957    magn:    0.0004    constr:    0.0000
     atom:   12    charge:    0.4960    magn:    0.0004    constr:    0.0000
     atom:   13    charge:    5.8057    magn:    1.1350    constr:    0.0000

     total cpu time spent up to now is      249.1 secs

     The total energy is the sum of the following terms:

     one-electron contribution =    -702.97531710 Ry
     hartree contribution      =     350.82818925 Ry
     xc contribution           =     -30.73980264 Ry
     ewald contribution        =     268.46058250 Ry

     total energy              =    -114.42623688 Ry
     Harris-Foulkes estimate   =    -114.42623688 Ry
     estimated scf accuracy    <          1.2E-09 Ry

     total magnetization       =     1.00 Bohr mag/cell
     absolute magnetization    =     1.57 Bohr mag/cell

     iteration # 66     ecut=    90.00 Ry     beta=0.70
     Davidson diagonalization with overlap
     WARNING:     1 eigenvalues not converged
     c_bands:  1 eigenvalues not converged
     ethr =  1.77E-12,  avg # of iterations = 13.5
 
     Magnetic moment per site:
     atom:    1    charge:    0.8454    magn:   -0.0041    constr:    0.0000
     atom:    2    charge:    0.8456    magn:   -0.0041    constr:    0.0000
     atom:    3    charge:    0.8464    magn:   -0.0103    constr:    0.0000
     atom:    4    charge:    0.8445    magn:   -0.0097    constr:    0.0000
     atom:    5    charge:    0.8448    magn:   -0.0097    constr:    0.0000
     atom:    6    charge:    0.8464    magn:   -0.0103    constr:    0.0000
     atom:    7    charge:    0.4983    magn:    0.0002    constr:    0.0000
     atom:    8    charge:    0.4976    magn:    0.0002    constr:    0.0000
     atom:    9    charge:    0.4960    magn:    0.0004    constr:    0.0000
     atom:   10    charge:    0.4964    magn:    0.0004    constr:    0.0000
     atom:   11    charge:    0.4957    magn:    0.0004    constr:    0.0000
     atom:   12    charge:    0.4960    magn:    0.0004    constr:    0.0000
     atom:   13    charge:    5.8057    magn:    1.1350    constr:    0.0000

     total cpu time spent up to now is      253.9 secs

     The total energy is the sum of the following terms:

     one-electron contribution =    -702.97528095 Ry
     hartree contribution      =     350.82818884 Ry
     xc contribution           =     -30.73980246 Ry
     ewald contribution        =     268.46058250 Ry

     total energy              =    -114.42623688 Ry
     Harris-Foulkes estimate   =    -114.42623688 Ry
     estimated scf accuracy    <          5.8E-10 Ry

     total magnetization       =     1.00 Bohr mag/cell
     absolute magnetization    =     1.57 Bohr mag/cell

     iteration # 67     ecut=    90.00 Ry     beta=0.70
     Davidson diagonalization with overlap
     WARNING:     1 eigenvalues not converged
     c_bands:  1 eigenvalues not converged
     ethr =  1.57E-12,  avg # of iterations = 13.5
 
     Magnetic moment per site:
     atom:    1    charge:    0.8454    magn:   -0.0041    constr:    0.0000
     atom:    2    charge:    0.8456    magn:   -0.0041    constr:    0.0000
     atom:    3    charge:    0.8464    magn:   -0.0103    constr:    0.0000
     atom:    4    charge:    0.8445    magn:   -0.0097    constr:    0.0000
     atom:    5    charge:    0.8448    magn:   -0.0097    constr:    0.0000
     atom:    6    charge:    0.8464    magn:   -0.0103    constr:    0.0000
     atom:    7    charge:    0.4983    magn:    0.0002    constr:    0.0000
     atom:    8    charge:    0.4976    magn:    0.0002    constr:    0.0000
     atom:    9    charge:    0.4960    magn:    0.0004    constr:    0.0000
     atom:   10    charge:    0.4964    magn:    0.0004    constr:    0.0000
     atom:   11    charge:    0.4957    magn:    0.0004    constr:    0.0000
     atom:   12    charge:    0.4960    magn:    0.0004    constr:    0.0000
     atom:   13    charge:    5.8057    magn:    1.1350    constr:    0.0000

     total cpu time spent up to now is      258.7 secs

     The total energy is the sum of the following terms:

     one-electron contribution =    -702.97527828 Ry
     hartree contribution      =     350.82819048 Ry
     xc contribution           =     -30.73980157 Ry
     ewald contribution        =     268.46058250 Ry

     total energy              =    -114.42623688 Ry
     Harris-Foulkes estimate   =    -114.42623688 Ry
     estimated scf accuracy    <          4.5E-10 Ry

     total magnetization       =     1.00 Bohr mag/cell
     absolute magnetization    =     1.57 Bohr mag/cell

     iteration # 68     ecut=    90.00 Ry     beta=0.70
     Davidson diagonalization with overlap
     WARNING:     1 eigenvalues not converged
     c_bands:  1 eigenvalues not converged
     ethr =  1.20E-12,  avg # of iterations = 14.0
 
     Magnetic moment per site:
     atom:    1    charge:    0.8454    magn:   -0.0040    constr:    0.0000
     atom:    2    charge:    0.8456    magn:   -0.0041    constr:    0.0000
     atom:    3    charge:    0.8464    magn:   -0.0103    constr:    0.0000
     atom:    4    charge:    0.8445    magn:   -0.0097    constr:    0.0000
     atom:    5    charge:    0.8448    magn:   -0.0097    constr:    0.0000
     atom:    6    charge:    0.8464    magn:   -0.0103    constr:    0.0000
     atom:    7    charge:    0.4983    magn:    0.0002    constr:    0.0000
     atom:    8    charge:    0.4976    magn:    0.0002    constr:    0.0000
     atom:    9    charge:    0.4960    magn:    0.0004    constr:    0.0000
     atom:   10    charge:    0.4964    magn:    0.0004    constr:    0.0000
     atom:   11    charge:    0.4957    magn:    0.0004    constr:    0.0000
     atom:   12    charge:    0.4960    magn:    0.0004    constr:    0.0000
     atom:   13    charge:    5.8057    magn:    1.1350    constr:    0.0000

     total cpu time spent up to now is      263.6 secs

     The total energy is the sum of the following terms:

     one-electron contribution =    -702.97525129 Ry
     hartree contribution      =     350.82820512 Ry
     xc contribution           =     -30.73980089 Ry
     ewald contribution        =     268.46058250 Ry

     total energy              =    -114.42623688 Ry
     Harris-Foulkes estimate   =    -114.42623688 Ry
     estimated scf accuracy    <          1.2E-10 Ry

     total magnetization       =     1.00 Bohr mag/cell
     absolute magnetization    =     1.57 Bohr mag/cell

     iteration # 69     ecut=    90.00 Ry     beta=0.70
     Davidson diagonalization with overlap
     WARNING:     1 eigenvalues not converged
     c_bands:  1 eigenvalues not converged
     ethr =  3.36E-13,  avg # of iterations = 14.0
 
     Magnetic moment per site:
     atom:    1    charge:    0.8454    magn:   -0.0040    constr:    0.0000
     atom:    2    charge:    0.8456    magn:   -0.0041    constr:    0.0000
     atom:    3    charge:    0.8464    magn:   -0.0103    constr:    0.0000
     atom:    4    charge:    0.8445    magn:   -0.0097    constr:    0.0000
     atom:    5    charge:    0.8448    magn:   -0.0097    constr:    0.0000
     atom:    6    charge:    0.8464    magn:   -0.0103    constr:    0.0000
     atom:    7    charge:    0.4983    magn:    0.0002    constr:    0.0000
     atom:    8    charge:    0.4976    magn:    0.0002    constr:    0.0000
     atom:    9    charge:    0.4960    magn:    0.0004    constr:    0.0000
     atom:   10    charge:    0.4964    magn:    0.0004    constr:    0.0000
     atom:   11    charge:    0.4957    magn:    0.0004    constr:    0.0000
     atom:   12    charge:    0.4960    magn:    0.0004    constr:    0.0000
     atom:   13    charge:    5.8057    magn:    1.1350    constr:    0.0000

     total cpu time spent up to now is      268.6 secs

     The total energy is the sum of the following terms:

     one-electron contribution =    -702.97518913 Ry
     hartree contribution      =     350.82819799 Ry
     xc contribution           =     -30.73980176 Ry
     ewald contribution        =     268.46058250 Ry

     total energy              =    -114.42623688 Ry
     Harris-Foulkes estimate   =    -114.42623688 Ry
     estimated scf accuracy    <          7.9E-11 Ry

     total magnetization       =     1.00 Bohr mag/cell
     absolute magnetization    =     1.57 Bohr mag/cell

     iteration # 70     ecut=    90.00 Ry     beta=0.70
     Davidson diagonalization with overlap
     WARNING:     1 eigenvalues not converged
     c_bands:  1 eigenvalues not converged
     ethr =  2.15E-13,  avg # of iterations = 13.5
 
     Magnetic moment per site:
     atom:    1    charge:    0.8454    magn:   -0.0040    constr:    0.0000
     atom:    2    charge:    0.8456    magn:   -0.0041    constr:    0.0000
     atom:    3    charge:    0.8464    magn:   -0.0103    constr:    0.0000
     atom:    4    charge:    0.8445    magn:   -0.0097    constr:    0.0000
     atom:    5    charge:    0.8448    magn:   -0.0097    constr:    0.0000
     atom:    6    charge:    0.8464    magn:   -0.0103    constr:    0.0000
     atom:    7    charge:    0.4983    magn:    0.0002    constr:    0.0000
     atom:    8    charge:    0.4976    magn:    0.0002    constr:    0.0000
     atom:    9    charge:    0.4960    magn:    0.0004    constr:    0.0000
     atom:   10    charge:    0.4964    magn:    0.0004    constr:    0.0000
     atom:   11    charge:    0.4957    magn:    0.0004    constr:    0.0000
     atom:   12    charge:    0.4960    magn:    0.0004    constr:    0.0000
     atom:   13    charge:    5.8057    magn:    1.1350    constr:    0.0000

     total cpu time spent up to now is      273.5 secs

     The total energy is the sum of the following terms:

     one-electron contribution =    -702.97521126 Ry
     hartree contribution      =     350.82819628 Ry
     xc contribution           =     -30.73980190 Ry
     ewald contribution        =     268.46058250 Ry

     total energy              =    -114.42623688 Ry
     Harris-Foulkes estimate   =    -114.42623688 Ry
     estimated scf accuracy    <          2.2E-12 Ry

     total magnetization       =     1.00 Bohr mag/cell
     absolute magnetization    =     1.57 Bohr mag/cell

     iteration # 71     ecut=    90.00 Ry     beta=0.70
     Davidson diagonalization with overlap
     WARNING:     1 eigenvalues not converged
     c_bands:  1 eigenvalues not converged
     ethr =  1.00E-13,  avg # of iterations = 14.0
 
     Magnetic moment per site:
     atom:    1    charge:    0.8454    magn:   -0.0040    constr:    0.0000
     atom:    2    charge:    0.8456    magn:   -0.0041    constr:    0.0000
     atom:    3    charge:    0.8464    magn:   -0.0103    constr:    0.0000
     atom:    4    charge:    0.8445    magn:   -0.0097    constr:    0.0000
     atom:    5    charge:    0.8448    magn:   -0.0097    constr:    0.0000
     atom:    6    charge:    0.8464    magn:   -0.0103    constr:    0.0000
     atom:    7    charge:    0.4983    magn:    0.0002    constr:    0.0000
     atom:    8    charge:    0.4976    magn:    0.0002    constr:    0.0000
     atom:    9    charge:    0.4960    magn:    0.0004    constr:    0.0000
     atom:   10    charge:    0.4964    magn:    0.0004    constr:    0.0000
     atom:   11    charge:    0.4957    magn:    0.0004    constr:    0.0000
     atom:   12    charge:    0.4960    magn:    0.0004    constr:    0.0000
     atom:   13    charge:    5.8057    magn:    1.1350    constr:    0.0000

     total cpu time spent up to now is      278.4 secs

     End of self-consistent calculation

 ------ SPIN UP ------------


          k = 0.0000 0.0000 0.0000 (238961 PWs)   bands (ev):

   -25.3194 -22.5797 -22.5329 -19.5637 -19.0029 -18.9962 -17.1670 -15.4972
   -15.0495 -14.5127 -14.4769 -13.2241 -12.4972 -12.4961 -10.5473 -10.4910
    -8.0519  -6.7321  -6.7166

     occupation numbers 
     1.0000   1.0000   1.0000   1.0000   1.0000   1.0000   1.0000   1.0000
     1.0000   1.0000   1.0000   1.0000   1.0000   1.0000   1.0000   1.0000
     1.0000   1.0000   1.0000

 ------ SPIN DOWN ----------


          k = 0.0000 0.0000 0.0000 (238961 PWs)   bands (ev):

   -25.3603 -22.6228 -22.5880 -19.0443 -19.0431 -18.0028 -17.1824 -15.5330
   -15.0685 -14.5230 -14.4907 -13.3294 -12.5127 -12.5100 -10.6595 -10.6371
    -6.1271  -6.1030  -5.4829

     occupation numbers 
     1.0000   1.0000   1.0000   1.0000   1.0000   1.0000   1.0000   1.0000
     1.0000   1.0000   1.0000   1.0000   1.0000   1.0000   1.0000   1.0000
     1.0000   1.0000   0.0000

     highest occupied level (ev):    -6.1030

     The total energy is the sum of the following terms:

     one-electron contribution =    -702.97521702 Ry
     hartree contribution      =     350.82819969 Ry
     xc contribution           =     -30.73980205 Ry
     ewald contribution        =     268.46058250 Ry

!    total energy              =    -114.42623688 Ry
     Harris-Foulkes estimate   =    -114.42623688 Ry
     estimated scf accuracy    <          8.5E-13 Ry

     The total energy is the sum of the following terms:

     one-electron contribution =    -702.97521702 Ry
     hartree contribution      =     350.82819969 Ry
     xc contribution           =     -30.73980205 Ry
     ewald contribution        =     268.46058250 Ry

     total magnetization       =     1.00 Bohr mag/cell
     absolute magnetization    =     1.57 Bohr mag/cell

     convergence has been achieved in  71 iterations
 
     Using Hirshfeld
        Amplitude [Ry a.u.] : -3.8823E-01
        Acceptor Fragment start :          13
        Acceptor Fragment end   :          13
        Donor Fragment start :           1
        Donor Fragment end   :          12
 
 
     Using Hirshfeld
        Amplitude [Ry a.u.] : -3.8823E-01
        Acceptor Fragment start :          13
        Acceptor Fragment end   :          13
        Donor Fragment start :           1
        Donor Fragment end   :          12
 
     E field correction              :  0.9317522458800633E+01 Ry    
 
     Donor charge                    :     -0.3494294070873671 e     
     Acceptor charge                 :      0.6505769262733576 e     
     Difference of charges           :     -1.0000063333607230 e     

     Writing output data file right.save
 
     init_run     :     14.86s CPU     14.86s WALL (       1 calls)
     electrons    :    264.73s CPU    264.73s WALL (       1 calls)

     Called by init_run:
     wfcinit      :      3.35s CPU      3.35s WALL (       1 calls)
     potinit      :      1.63s CPU      1.63s WALL (       1 calls)

     Called by electrons:
     c_bands      :    198.93s CPU    198.93s WALL (      71 calls)
     sum_band     :      9.03s CPU      9.03s WALL (      71 calls)
     v_of_rho     :     41.52s CPU     41.52s WALL (      72 calls)
     v_h          :      0.60s CPU      0.60s WALL (      72 calls)
     v_xc         :     40.91s CPU     40.91s WALL (      72 calls)
     mix_rho      :      4.15s CPU      4.15s WALL (      71 calls)

     Called by c_bands:
     init_us_2    :      2.28s CPU      2.28s WALL (     286 calls)
     regterg      :    189.65s CPU    189.65s WALL (     142 calls)

     Called by sum_band:

     Called by *egterg:
     h_psi        :     46.41s CPU     46.41s WALL (    1529 calls)
     g_psi        :      1.82s CPU      1.82s WALL (    1385 calls)
     rdiaghg      :    101.79s CPU    101.79s WALL (    1527 calls)
     regterg:over :      9.23s CPU      9.23s WALL (    1385 calls)
     regterg:upda :     11.43s CPU     11.44s WALL (    1385 calls)
     regterg:last :      2.35s CPU      2.35s WALL (     170 calls)
     rdiaghg:chol :      4.80s CPU      4.81s WALL (    1527 calls)
     rdiaghg:inve :      3.04s CPU      3.04s WALL (    1527 calls)
     rdiaghg:para :      9.65s CPU      9.65s WALL (    3054 calls)

     Called by h_psi:
     h_psi:vloc   :     35.86s CPU     35.86s WALL (    1529 calls)
     h_psi:vnl    :     10.40s CPU     10.40s WALL (    1529 calls)
     add_vuspsi   :      5.45s CPU      5.45s WALL (    1529 calls)

     General routines
     calbec       :      4.93s CPU      4.93s WALL (    1529 calls)
     fft          :     11.00s CPU     11.00s WALL (    2134 calls)
     fftw         :     36.45s CPU     36.45s WALL (   11878 calls)
 
     Parallel routines
     fft_scatter  :     18.70s CPU     18.70s WALL (   14012 calls)
 
     PWSCF        :  5m 4.20s CPU     5m 4.20s WALL

 
   This run was terminated on:  23:24: 9  12Jan2016            

=------------------------------------------------------------------------------=
   JOB DONE.
=------------------------------------------------------------------------------=
2016-01-12 23:24:26.682 (INFO ) [0xfff966bc410] CET-40000-51331-128:1514567:ibm.runjob.client.Job: exited with status 0
2016-01-12 23:24:26.683 (INFO ) [0xfff966bc410] tatu.runjob.client: task exited with status 0
2016-01-12 23:24:26.683 (INFO ) [0xfff901834e0] 30488:tatu.runjob.monitor: monitor terminating
2016-01-12 23:24:26.687 (INFO ) [0xfff966bc410] tatu.runjob.client: monitor completed
