
     Program PWSCF v.5.1.1 starts on  6Aug2015 at 16:42: 5 

     This program is part of the open-source Quantum ESPRESSO suite
     for quantum simulation of materials; please cite
         "P. Giannozzi et al., J. Phys.:Condens. Matter 21 395502 (2009);
          URL http://www.quantum-espresso.org", 
     in publications or presentations arising from this work. More details at
     http://www.quantum-espresso.org/quote

     Parallel version (MPI & OpenMP), running on      32 processor cores
     Number of MPI processes:                 1
     Threads/MPI process:                    32
     Waiting for input...
     Reading input from standard input

     Current dimensions of program PWSCF are:
     Max number of different atomic species (ntypx) = 10
     Max number of k-points (npk) =  40000
     Max angular momentum in pseudopotentials (lmaxx) =  3

     Atomic positions and unit cell read from directory:
     out/right.save/
 
               file Zn.pbe-mt_fhi.UPF: wavefunction(s)  4p 4f renormalized

     gamma-point specific algorithms are used
     Message from routine setup:
     the system is metallic, specify occupations

     Subspace diagonalization in iterative solution of the eigenvalue problem:
     a serial algorithm will be used

     Found symmetry operation: I + ( -0.5000  0.0000  0.0000)
     This is a supercell, fractional translations are disabled
 
     G-vector sticks info
     --------------------
     sticks:   dense  smooth     PW     G-vecs:    dense   smooth      PW
     Sum       17849   17849   4469              1790487  1790487  223735
     Tot        8925    8925   2235
 
     Generating pointlists ...
     new r_m :   0.2063 (alat units)  5.4566 (a.u.) for type    1


     bravais-lattice index     =            1
     lattice parameter (alat)  =      26.4562  a.u.
     unit-cell volume          =   18517.4301 (a.u.)^3
     number of atoms/cell      =            2
     number of atomic types    =            1
     number of electrons       =        23.00 (up:  12.00, down:  11.00)
     number of Kohn-Sham states=           12
     kinetic-energy cutoff     =      80.0000  Ry
     charge density cutoff     =     320.0000  Ry
     convergence threshold     =      1.0E-08
     mixing beta               =       0.3000
     number of iterations used =            8  plain     mixing
     Exchange-correlation      = PBE ( 1  4  3  4 0 0)

     celldm(1)=  26.456166  celldm(2)=   0.000000  celldm(3)=   0.000000
     celldm(4)=   0.000000  celldm(5)=   0.000000  celldm(6)=   0.000000

     crystal axes: (cart. coord. in units of alat)
               a(1) = (   1.000000   0.000000   0.000000 )  
               a(2) = (   0.000000   1.000000   0.000000 )  
               a(3) = (   0.000000   0.000000   1.000000 )  

     reciprocal axes: (cart. coord. in units 2 pi/alat)
               b(1) = (  1.000000  0.000000  0.000000 )  
               b(2) = (  0.000000  1.000000  0.000000 )  
               b(3) = (  0.000000  0.000000  1.000000 )  


     PseudoPot. # 1 for Zn read from file:
     ../../../pseudo/Zn.pbe-mt_fhi.UPF
     MD5 check sum: 5596c9f2b89b9f7367257e7ea958b26e
     Pseudo is Norm-conserving, Zval = 12.0
     Generated using FHI98PP, converted with fhi2upf.x v.5.0.2
     Using radial grid of  527 points,  3 beta functions with: 
                l(1) =   1
                l(2) =   2
                l(3) =   3

     atomic species   valence    mass     pseudopotential
        Zn            12.00    65.39000     Zn( 1.00)

     Starting magnetic structure 
     atomic species   magnetization
        Zn           0.000

     No symmetry found


                                    s                        frac. trans.

      isym =  1     identity                                     

 cryst.   s( 1) = (     1          0          0      )
                  (     0          1          0      )
                  (     0          0          1      )

 cart.    s( 1) = (  1.0000000  0.0000000  0.0000000 )
                  (  0.0000000  1.0000000  0.0000000 )
                  (  0.0000000  0.0000000  1.0000000 )


     point group C_1 (1)    
     there are  1 classes
     the character table:

       E    
A      1.00

     the symmetry operations in each class:
     E        1

   Cartesian axes

     site n.     atom                  positions (alat units)
         1           Zn  tau(   1) = (   0.0000000   0.0000000   0.0000000  )
         2           Zn  tau(   2) = (   0.5000000   0.0000000   0.0000000  )

   Crystallographic axes

     site n.     atom                  positions (cryst. coord.)
         1           Zn  tau(   1) = (  0.0000000  0.0000000  0.0000000  )
         2           Zn  tau(   2) = (  0.5000000  0.0000000  0.0000000  )

     number of k points=     2
                       cart. coord. in units 2pi/alat
        k(    1) = (   0.0000000   0.0000000   0.0000000), wk =   1.0000000
        k(    2) = (   0.0000000   0.0000000   0.0000000), wk =   1.0000000

                       cryst. coord.
        k(    1) = (   0.0000000   0.0000000   0.0000000), wk =   1.0000000
        k(    2) = (   0.0000000   0.0000000   0.0000000), wk =   1.0000000

     Dense  grid:   895244 G-vectors     FFT dimensions: ( 160, 160, 160)

     Largest allocated arrays     est. size (Mb)     dimensions
        Kohn-Sham Wavefunctions        20.48 Mb     (  111868,   12)
        NL pseudopotentials            51.21 Mb     (  111868,   30)
        Each V/rho on FFT grid        125.00 Mb     ( 4096000,   2)
        Each G-vector array             6.83 Mb     (  895244)
        G-vector shells                 0.04 Mb     (    4731)
     Largest temporary arrays     est. size (Mb)     dimensions
        Auxiliary wavefunctions        40.97 Mb     (  111868,   48)
        Each subspace H/S matrix        0.02 Mb     (      48,   48)
        Each <psi_i|beta_j> matrix      0.00 Mb     (      30,   12)
        Arrays for rho mixing         500.00 Mb     ( 4096000,    8)
 
     Using Hirshfeld
        Amplitude [Ry a.u.] :  3.3000E-01
        Acceptor Fragment start :           2
        Acceptor Fragment end   :           2
 

     The initial density is read from file :
     out/right.save/charge-density.dat

     Starting wfc from file

     total cpu time spent up to now is       16.6 secs

     Self-consistent Calculation

     iteration #  1     ecut=    80.00 Ry     beta=0.30
     Davidson diagonalization with overlap
     ethr =  1.00E-05,  avg # of iterations =  1.0

     Threshold (ethr) on eigenvalues was too large:
     Diagonalizing with lowered threshold

     Davidson diagonalization with overlap
     ethr =  2.85E-12,  avg # of iterations =  4.0
 
     Magnetic moment per site:
     atom:    1    charge:   10.9969    magn:    0.9970    constr:    0.0000
     atom:    2    charge:   11.9776    magn:    0.0001    constr:    0.0000

     total cpu time spent up to now is       34.2 secs

     End of self-consistent calculation

 ------ SPIN UP ------------


          k = 0.0000 0.0000 0.0000 (111868 PWs)   bands (ev):

   -14.3901 -14.3864 -14.3864 -14.3759 -14.3759 -12.3223 -12.3222 -12.3222
   -12.3222 -12.3222 -10.2356  -6.9820

     occupation numbers 
     1.0000   1.0000   1.0000   1.0000   1.0000   1.0000   1.0000   1.0000
     1.0000   1.0000   1.0000   1.0000

 ------ SPIN DOWN ----------


          k = 0.0000 0.0000 0.0000 (111868 PWs)   bands (ev):

   -14.3901 -14.3864 -14.3864 -14.3759 -14.3759 -12.0707 -12.0707 -12.0707
   -12.0706 -12.0706 -10.2355  -5.7754

     occupation numbers 
     1.0000   1.0000   1.0000   1.0000   1.0000   1.0000   1.0000   1.0000
     1.0000   1.0000   1.0000   0.0000

     highest occupied level (ev):    -6.9820

     The total energy is the sum of the following terms:

     one-electron contribution =    -333.83781334 Ry
     hartree contribution      =     177.14580477 Ry
     xc contribution           =     -32.41812816 Ry
     ewald contribution        =     -31.93093748 Ry

!    total energy              =    -221.04107421 Ry
     Harris-Foulkes estimate   =    -221.04107421 Ry
     estimated scf accuracy    <          1.0E-09 Ry

     The total energy is the sum of the following terms:

     one-electron contribution =    -333.83781334 Ry
     hartree contribution      =     177.14580477 Ry
     xc contribution           =     -32.41812816 Ry
     ewald contribution        =     -31.93093748 Ry

     total magnetization       =     1.00 Bohr mag/cell
     absolute magnetization    =     1.02 Bohr mag/cell

     convergence has been achieved in   1 iterations
 
     Using Hirshfeld
        Amplitude [Ry a.u.] :  3.3000E-01
        Acceptor Fragment start :           2
        Acceptor Fragment end   :           2
 
 
     Using Hirshfeld
        Amplitude [Ry a.u.] :  3.3000E-01
        Acceptor Fragment start :           2
        Acceptor Fragment end   :           2
 
     E field correction :   0.329504107675649       Ry
     #e's   in well     :   0.998497295986914       electrons

     Writing output data file right.save
 
     init_run     :    226.84s CPU     16.35s WALL (       1 calls)
     electrons    :    375.56s CPU     18.28s WALL (       1 calls)

     Called by init_run:
     wfcinit      :      0.01s CPU      0.00s WALL (       1 calls)
     potinit      :     86.02s CPU      4.72s WALL (       1 calls)

     Called by electrons:
     c_bands      :    220.05s CPU     10.50s WALL (       2 calls)
     sum_band     :     78.11s CPU      3.24s WALL (       2 calls)
     v_of_rho     :    148.79s CPU      7.14s WALL (       2 calls)
     v_h          :     10.21s CPU      0.46s WALL (       2 calls)
     v_xc         :    135.40s CPU      6.55s WALL (       2 calls)
     mix_rho      :      2.11s CPU      0.14s WALL (       2 calls)

     Called by c_bands:
     init_us_2    :     10.60s CPU      0.48s WALL (       8 calls)
     regterg      :    207.63s CPU      8.86s WALL (       4 calls)

     Called by sum_band:

     Called by *egterg:
     h_psi        :    191.10s CPU      7.78s WALL (      14 calls)
     g_psi        :      2.17s CPU      0.11s WALL (      10 calls)
     rdiaghg      :      0.35s CPU      0.02s WALL (      10 calls)
     regterg:over :      6.17s CPU      0.29s WALL (      10 calls)
     regterg:upda :      1.38s CPU      0.07s WALL (      10 calls)
     regterg:last :      0.60s CPU      0.02s WALL (       4 calls)

     Called by h_psi:
     h_psi:vloc   :    182.94s CPU      7.40s WALL (      14 calls)
     h_psi:vnl    :      7.71s CPU      0.34s WALL (      14 calls)
     add_vuspsi   :      1.60s CPU      0.07s WALL (      14 calls)

     General routines
     calbec       :      6.10s CPU      0.27s WALL (      14 calls)
     fft          :    382.67s CPU     16.19s WALL (     137 calls)
     fftw         :    173.84s CPU      6.92s WALL (     140 calls)
     davcio       :      0.00s CPU      0.14s WALL (       2 calls)
 
     Parallel routines
     fft_scatter  :    200.89s CPU      8.84s WALL (     277 calls)
 
     PWSCF        : 13m42.67s CPU     0m53.99s WALL

 
   This run was terminated on:  16:42:59   6Aug2015            

=------------------------------------------------------------------------------=
   JOB DONE.
=------------------------------------------------------------------------------=
