
     Program PWSCF v.5.1.1 starts on 11Aug2015 at 13:24:26 

     This program is part of the open-source Quantum ESPRESSO suite
     for quantum simulation of materials; please cite
         "P. Giannozzi et al., J. Phys.:Condens. Matter 21 395502 (2009);
          URL http://www.quantum-espresso.org", 
     in publications or presentations arising from this work. More details at
     http://www.quantum-espresso.org/quote

     Parallel version (MPI & OpenMP), running on     198 processor cores
     Number of MPI processes:               198
     Threads/MPI process:                     1
     R & G space division:  proc/nbgrp/npool/nimage =     198
     Waiting for input...
     Reading input from standard input

     Current dimensions of program PWSCF are:
     Max number of different atomic species (ntypx) = 10
     Max number of k-points (npk) =  40000
     Max angular momentum in pseudopotentials (lmaxx) =  3
               file Zn.pbe-mt_fhi.UPF: wavefunction(s)  4p 4f renormalized

     gamma-point specific algorithms are used
     Message from routine setup:
     the system is metallic, specify occupations

     Subspace diagonalization in iterative solution of the eigenvalue problem:
     scalapack distributed-memory algorithm (size of sub-group:  9*  9 procs)

 
     Parallelization info
     --------------------
     sticks:   dense  smooth     PW     G-vecs:    dense   smooth      PW
     Min         516     516    128               124316   124316   15532
     Max         518     518    130               124342   124342   15554
     Sum      102325  102325  25581             24616397 24616397 3077481
     Tot       51163   51163  12791
 
     Generating pointlists ...
     new r_m :   0.0825 (alat units)  4.6771 (a.u.) for type    1


     bravais-lattice index     =            1
     lattice parameter (alat)  =      56.6918  a.u.
     unit-cell volume          =  182205.0337 (a.u.)^3
     number of atoms/cell      =            2
     number of atomic types    =            1
     number of electrons       =        23.00 (up:  12.00, down:  11.00)
     number of Kohn-Sham states=           12
     kinetic-energy cutoff     =     100.0000  Ry
     charge density cutoff     =     400.0000  Ry
     convergence threshold     =      1.0E-09
     mixing beta               =       0.7000
     number of iterations used =            8  plain     mixing
     Exchange-correlation      = PBE ( 1  4  3  4 0 0)
     Assuming isolated system, Martyna-Tuckerman method


     celldm(1)=  56.691784  celldm(2)=   0.000000  celldm(3)=   0.000000
     celldm(4)=   0.000000  celldm(5)=   0.000000  celldm(6)=   0.000000

     crystal axes: (cart. coord. in units of alat)
               a(1) = (   1.000000   0.000000   0.000000 )  
               a(2) = (   0.000000   1.000000   0.000000 )  
               a(3) = (   0.000000   0.000000   1.000000 )  

     reciprocal axes: (cart. coord. in units 2 pi/alat)
               b(1) = (  1.000000  0.000000  0.000000 )  
               b(2) = (  0.000000  1.000000  0.000000 )  
               b(3) = (  0.000000  0.000000  1.000000 )  


     PseudoPot. # 1 for Zn read from file:
     ../Zn.pbe-mt_fhi.UPF
     MD5 check sum: 5596c9f2b89b9f7367257e7ea958b26e
     Pseudo is Norm-conserving, Zval = 12.0
     Generated using FHI98PP, converted with fhi2upf.x v.5.0.2
     Using radial grid of  527 points,  3 beta functions with: 
                l(1) =   1
                l(2) =   2
                l(3) =   3

     atomic species   valence    mass     pseudopotential
        Zn            12.00    65.39000     Zn( 1.00)

     Starting magnetic structure 
     atomic species   magnetization
        Zn           0.000

     No symmetry found


                                    s                        frac. trans.

      isym =  1     identity                                     

 cryst.   s( 1) = (     1          0          0      )
                  (     0          1          0      )
                  (     0          0          1      )

 cart.    s( 1) = (  1.0000000  0.0000000  0.0000000 )
                  (  0.0000000  1.0000000  0.0000000 )
                  (  0.0000000  0.0000000  1.0000000 )


     point group C_1 (1)    
     there are  1 classes
     the character table:

       E    
A      1.00

     the symmetry operations in each class:
     E        1

   Cartesian axes

     site n.     atom                  positions (alat units)
         1           Zn  tau(   1) = (   0.0000000   0.0000000   0.0000000  )
         2           Zn  tau(   2) = (   0.2000000   0.0000000   0.0000000  )

   Crystallographic axes

     site n.     atom                  positions (cryst. coord.)
         1           Zn  tau(   1) = (  0.0000000  0.0000000  0.0000000  )
         2           Zn  tau(   2) = (  0.2000000  0.0000000  0.0000000  )

     number of k points=     2
                       cart. coord. in units 2pi/alat
        k(    1) = (   0.0000000   0.0000000   0.0000000), wk =   1.0000000
        k(    2) = (   0.0000000   0.0000000   0.0000000), wk =   1.0000000

                       cryst. coord.
        k(    1) = (   0.0000000   0.0000000   0.0000000), wk =   1.0000000
        k(    2) = (   0.0000000   0.0000000   0.0000000), wk =   1.0000000

     Dense  grid: 12308199 G-vectors     FFT dimensions: ( 375, 375, 375)

     Largest allocated arrays     est. size (Mb)     dimensions
        Kohn-Sham Wavefunctions         1.42 Mb     (    7771,   12)
        NL pseudopotentials             3.56 Mb     (    7771,   30)
        Each V/rho on FFT grid          8.58 Mb     (  281250,   2)
        Each G-vector array             0.47 Mb     (   62165)
        G-vector shells                 0.13 Mb     (   16426)
     Largest temporary arrays     est. size (Mb)     dimensions
        Auxiliary wavefunctions         2.85 Mb     (    7771,   48)
        Each subspace H/S matrix        0.00 Mb     (       5,    5)
        Each <psi_i|beta_j> matrix      0.00 Mb     (      30,   12)
        Arrays for rho mixing          34.33 Mb     (  281250,    8)
 
     Using Hirshfeld
        Amplitude [Ry a.u.] :  3.3000E-01
        Acceptor Fragment start :           1
        Acceptor Fragment end   :           1
 

     Initial potential from superposition of free atoms
     Check: negative starting charge=(component1):   -0.004973
     Check: negative starting charge=(component2):   -0.004973

     starting charge   23.99975, renormalised to   23.00000

     negative rho (up, down):  4.765E-03 4.765E-03
     Starting wfc are   32 randomized atomic wfcs

     total cpu time spent up to now is       28.4 secs

     per-process dynamical memory:    83.6 Mb

     Self-consistent Calculation

     iteration #  1     ecut=   100.00 Ry     beta=0.70
     Davidson diagonalization with overlap
     ethr =  1.00E-02,  avg # of iterations =  2.0

     negative rho (up, down):  1.332E-03 1.370E-03
 
     Magnetic moment per site:
     atom:    1    charge:   11.8144    magn:    0.0006    constr:    0.0000
     atom:    2    charge:   11.1195    magn:    0.6888    constr:    0.0000

     total cpu time spent up to now is       34.3 secs

     The total energy is the sum of the following terms:

     one-electron contribution =    -449.74788434 Ry
     hartree contribution      =     231.92997356 Ry
     xc contribution           =     -32.75484316 Ry
     ewald contribution        =      25.40050601 Ry

     total energy              =    -220.74961365 Ry
     Harris-Foulkes estimate   =    -221.30475956 Ry
     estimated scf accuracy    <       0.71317547 Ry

     total magnetization       =     1.00 Bohr mag/cell
     absolute magnetization    =     1.00 Bohr mag/cell

     iteration #  2     ecut=   100.00 Ry     beta=0.70
     Davidson diagonalization with overlap
     ethr =  3.10E-03,  avg # of iterations =  3.0

     negative rho (up, down):  5.689E-04 5.953E-04
 
     Magnetic moment per site:
     atom:    1    charge:   11.8823    magn:    0.0006    constr:    0.0000
     atom:    2    charge:   11.0445    magn:    0.8540    constr:    0.0000

     total cpu time spent up to now is       40.3 secs

     The total energy is the sum of the following terms:

     one-electron contribution =    -441.50987153 Ry
     hartree contribution      =     229.30961302 Ry
     xc contribution           =     -32.35965788 Ry
     ewald contribution        =      25.40050601 Ry

     total energy              =    -220.91453421 Ry
     Harris-Foulkes estimate   =    -220.95781618 Ry
     estimated scf accuracy    <       0.06832660 Ry

     total magnetization       =     1.00 Bohr mag/cell
     absolute magnetization    =     1.01 Bohr mag/cell

     iteration #  3     ecut=   100.00 Ry     beta=0.70
     Davidson diagonalization with overlap
     ethr =  2.97E-04,  avg # of iterations =  2.0

     negative rho (up, down):  9.548E-05 1.014E-04
 
     Magnetic moment per site:
     atom:    1    charge:   11.9297    magn:    0.0006    constr:    0.0000
     atom:    2    charge:   10.9969    magn:    0.9630    constr:    0.0000

     total cpu time spent up to now is       45.9 secs

     The total energy is the sum of the following terms:

     one-electron contribution =    -443.80727421 Ry
     hartree contribution      =     229.64788170 Ry
     xc contribution           =     -32.41453357 Ry
     ewald contribution        =      25.40050601 Ry

     total energy              =    -220.93196733 Ry
     Harris-Foulkes estimate   =    -220.93311985 Ry
     estimated scf accuracy    <       0.00278706 Ry

     total magnetization       =     1.00 Bohr mag/cell
     absolute magnetization    =     1.01 Bohr mag/cell

     iteration #  4     ecut=   100.00 Ry     beta=0.70
     Davidson diagonalization with overlap
     ethr =  1.21E-05,  avg # of iterations =  4.0

     negative rho (up, down):  1.483E-05 1.591E-05
 
     Magnetic moment per site:
     atom:    1    charge:   11.9369    magn:    0.0006    constr:    0.0000
     atom:    2    charge:   10.9890    magn:    0.9834    constr:    0.0000

     total cpu time spent up to now is       51.8 secs

     The total energy is the sum of the following terms:

     one-electron contribution =    -443.52007992 Ry
     hartree contribution      =     229.64489875 Ry
     xc contribution           =     -32.41771821 Ry
     ewald contribution        =      25.40050601 Ry

     total energy              =    -220.93264843 Ry
     Harris-Foulkes estimate   =    -220.93266938 Ry
     estimated scf accuracy    <       0.00018968 Ry

     total magnetization       =     1.00 Bohr mag/cell
     absolute magnetization    =     1.02 Bohr mag/cell

     iteration #  5     ecut=   100.00 Ry     beta=0.70
     Davidson diagonalization with overlap
     ethr =  8.25E-07,  avg # of iterations =  2.5
 
     Magnetic moment per site:
     atom:    1    charge:   11.9377    magn:    0.0005    constr:    0.0000
     atom:    2    charge:   10.9877    magn:    0.9879    constr:    0.0000

     total cpu time spent up to now is       57.5 secs

     The total energy is the sum of the following terms:

     one-electron contribution =    -443.53568392 Ry
     hartree contribution      =     229.62536769 Ry
     xc contribution           =     -32.41651371 Ry
     ewald contribution        =      25.40050601 Ry

     total energy              =    -220.93268480 Ry
     Harris-Foulkes estimate   =    -220.93267959 Ry
     estimated scf accuracy    <       0.00000903 Ry

     total magnetization       =     1.00 Bohr mag/cell
     absolute magnetization    =     1.02 Bohr mag/cell

     iteration #  6     ecut=   100.00 Ry     beta=0.70
     Davidson diagonalization with overlap
     ethr =  3.92E-08,  avg # of iterations =  5.0
 
     Magnetic moment per site:
     atom:    1    charge:   11.9379    magn:    0.0005    constr:    0.0000
     atom:    2    charge:   10.9877    magn:    0.9880    constr:    0.0000

     total cpu time spent up to now is       63.8 secs

     The total energy is the sum of the following terms:

     one-electron contribution =    -443.55245166 Ry
     hartree contribution      =     229.63241194 Ry
     xc contribution           =     -32.41729857 Ry
     ewald contribution        =      25.40050601 Ry

     total energy              =    -220.93268729 Ry
     Harris-Foulkes estimate   =    -220.93268779 Ry
     estimated scf accuracy    <       0.00000102 Ry

     total magnetization       =     1.00 Bohr mag/cell
     absolute magnetization    =     1.02 Bohr mag/cell

     iteration #  7     ecut=   100.00 Ry     beta=0.70
     Davidson diagonalization with overlap
     ethr =  4.42E-09,  avg # of iterations =  3.0
 
     Magnetic moment per site:
     atom:    1    charge:   11.9379    magn:    0.0005    constr:    0.0000
     atom:    2    charge:   10.9877    magn:    0.9880    constr:    0.0000

     total cpu time spent up to now is       69.8 secs

     The total energy is the sum of the following terms:

     one-electron contribution =    -443.54709777 Ry
     hartree contribution      =     229.63260072 Ry
     xc contribution           =     -32.41730533 Ry
     ewald contribution        =      25.40050601 Ry

     total energy              =    -220.93268761 Ry
     Harris-Foulkes estimate   =    -220.93268762 Ry
     estimated scf accuracy    <       0.00000007 Ry

     total magnetization       =     1.00 Bohr mag/cell
     absolute magnetization    =     1.02 Bohr mag/cell

     iteration #  8     ecut=   100.00 Ry     beta=0.70
     Davidson diagonalization with overlap
     ethr =  2.91E-10,  avg # of iterations =  4.0
 
     Magnetic moment per site:
     atom:    1    charge:   11.9378    magn:    0.0005    constr:    0.0000
     atom:    2    charge:   10.9877    magn:    0.9880    constr:    0.0000

     total cpu time spent up to now is       75.5 secs

     The total energy is the sum of the following terms:

     one-electron contribution =    -443.54710089 Ry
     hartree contribution      =     229.63186972 Ry
     xc contribution           =     -32.41722620 Ry
     ewald contribution        =      25.40050601 Ry

     total energy              =    -220.93268761 Ry
     Harris-Foulkes estimate   =    -220.93268762 Ry
     estimated scf accuracy    <       0.00000002 Ry

     total magnetization       =     1.00 Bohr mag/cell
     absolute magnetization    =     1.02 Bohr mag/cell

     iteration #  9     ecut=   100.00 Ry     beta=0.70
     Davidson diagonalization with overlap
     ethr =  8.83E-11,  avg # of iterations =  3.5
 
     Magnetic moment per site:
     atom:    1    charge:   11.9378    magn:    0.0005    constr:    0.0000
     atom:    2    charge:   10.9877    magn:    0.9880    constr:    0.0000

     total cpu time spent up to now is       80.9 secs

     End of self-consistent calculation

 ------ SPIN UP ------------


          k = 0.0000 0.0000 0.0000 (****** PWs)   bands (ev):

   -16.9992 -16.9955 -16.9955 -16.9878 -16.9872 -15.3380 -15.3375 -15.3375
   -15.3370 -15.3370 -12.8383  -9.9862

     occupation numbers 
     1.0000   1.0000   1.0000   1.0000   1.0000   1.0000   1.0000   1.0000
     1.0000   1.0000   1.0000   1.0000

 ------ SPIN DOWN ----------


          k = 0.0000 0.0000 0.0000 (****** PWs)   bands (ev):

   -16.9992 -16.9955 -16.9955 -16.9878 -16.9872 -15.0865 -15.0861 -15.0860
   -15.0856 -15.0856 -12.8375  -8.7834

     occupation numbers 
     1.0000   1.0000   1.0000   1.0000   1.0000   1.0000   1.0000   1.0000
     1.0000   1.0000   1.0000   0.0000

     highest occupied level (ev):    -9.9862

     The total energy is the sum of the following terms:

     one-electron contribution =    -443.54780791 Ry
     hartree contribution      =     229.63183802 Ry
     xc contribution           =     -32.41722374 Ry
     ewald contribution        =      25.40050601 Ry

!    total energy              =    -220.93268762 Ry
     Harris-Foulkes estimate   =    -220.93268762 Ry
     estimated scf accuracy    <          3.2E-10 Ry

     The total energy is the sum of the following terms:

     one-electron contribution =    -443.54780791 Ry
     hartree contribution      =     229.63183802 Ry
     xc contribution           =     -32.41722374 Ry
     ewald contribution        =      25.40050601 Ry

     total magnetization       =     1.00 Bohr mag/cell
     absolute magnetization    =     1.02 Bohr mag/cell

     convergence has been achieved in   9 iterations
 
     Using Hirshfeld
        Amplitude [Ry a.u.] :  3.3000E-01
        Acceptor Fragment start :           1
        Acceptor Fragment end   :           1
 
     E field correction :   0.329170588162365       Ry
     Total charge in well     :  -0.997486630795073       Ha atomic units

     Writing output data file left.save
 
     init_run     :     26.73s CPU     28.23s WALL (       1 calls)
     electrons    :     58.23s CPU     61.36s WALL (       1 calls)

     Called by init_run:
     wfcinit      :      2.55s CPU      2.57s WALL (       1 calls)
     potinit      :      2.00s CPU      2.20s WALL (       1 calls)

     Called by electrons:
     c_bands      :     27.63s CPU     27.73s WALL (       9 calls)
     sum_band     :      7.17s CPU      7.44s WALL (       9 calls)
     v_of_rho     :     14.29s CPU     15.71s WALL (      10 calls)
     v_h          :      0.91s CPU      0.98s WALL (      10 calls)
     v_xc         :     13.37s CPU     14.70s WALL (      10 calls)
     mix_rho      :      2.68s CPU      2.86s WALL (       9 calls)

     Called by c_bands:
     init_us_2    :      0.32s CPU      0.33s WALL (      38 calls)
     regterg      :     26.77s CPU     26.86s WALL (      18 calls)

     Called by sum_band:

     Called by *egterg:
     h_psi        :     26.10s CPU     26.16s WALL (      78 calls)
     g_psi        :      0.04s CPU      0.05s WALL (      58 calls)
     rdiaghg      :      0.42s CPU      0.45s WALL (      76 calls)
     regterg:over :      0.85s CPU      0.83s WALL (      58 calls)
     regterg:upda :      0.93s CPU      0.94s WALL (      58 calls)
     regterg:last :      0.33s CPU      0.32s WALL (      18 calls)
     rdiaghg:chol :      0.05s CPU      0.04s WALL (      76 calls)
     rdiaghg:inve :      0.00s CPU      0.01s WALL (      76 calls)
     rdiaghg:para :      0.03s CPU      0.04s WALL (     152 calls)

     Called by h_psi:
     h_psi:vloc   :     25.40s CPU     25.48s WALL (      78 calls)
     h_psi:vnl    :      0.58s CPU      0.56s WALL (      78 calls)
     add_vuspsi   :      0.26s CPU      0.25s WALL (      78 calls)

     General routines
     calbec       :      0.32s CPU      0.31s WALL (      78 calls)
     fft          :     18.65s CPU     21.12s WALL (     272 calls)
     fftw         :     25.57s CPU     25.58s WALL (     814 calls)
 
     Parallel routines
     fft_scatter  :     26.23s CPU     28.58s WALL (    1086 calls)
 
     PWSCF        :  2m14.80s CPU     2m35.81s WALL

 
   This run was terminated on:  13:27: 2  11Aug2015            

=------------------------------------------------------------------------------=
   JOB DONE.
=------------------------------------------------------------------------------=
Application 57820122 resources: utime ~29505s, stime ~1552s, Rss ~2185608, inblocks ~2273820, outblocks ~10898169
