
     Program PWSCF v.5.1.1 starts on 10May2016 at  8:53: 1 

     This program is part of the open-source Quantum ESPRESSO suite
     for quantum simulation of materials; please cite
         "P. Giannozzi et al., J. Phys.:Condens. Matter 21 395502 (2009);
          URL http://www.quantum-espresso.org", 
     in publications or presentations arising from this work. More details at
     http://www.quantum-espresso.org/quote

     Parallel version (MPI), running on     4 processors
     R & G space division:  proc/nbgrp/npool/nimage =       4
     Waiting for input...
     Reading input from standard input
 Reading EPCDFT CARD. Printing based upon belief that input should be reproducable from output.
     Reading   1 constraint(s); tolerance:  100.000000 max change in field 0.01
     epcdft_update_intrvl: 100
     epcdft with surface: T
          constraint           type   A   A   D   D      T      L
                   1  delta_charge    1   1   2   2 0.0000 0.0000

     Current dimensions of program PWSCF are:
     Max number of different atomic species (ntypx) = 10
     Max number of k-points (npk) =  40000
     Max angular momentum in pseudopotentials (lmaxx) =  3
               file Zn.pbe-mt_fhi.UPF: wavefunction(s)  4p 4f renormalized

     gamma-point specific algorithms are used
     Message from routine setup:
     the system is metallic, specify occupations

     Subspace diagonalization in iterative solution of the eigenvalue problem:
     a serial algorithm will be used


     Parallelization info
     --------------------
     sticks:   dense  smooth     PW     G-vecs:    dense   smooth      PW
     Min        2047    2047    512               139165   139165   17446
     Max        2052    2052    514               139168   139168   17450
     Sum        8197    8197   2053               556667   556667   69791
     Tot        4099    4099   1027

     Generating pointlists ...
     new r_m :   0.0687 (alat units)  1.5590 (a.u.) for type    1


     bravais-lattice index     =            1
     lattice parameter (alat)  =      22.6767  a.u.
     unit-cell volume          =   11661.1222 (a.u.)^3
     number of atoms/cell      =            2
     number of atomic types    =            1
     number of electrons       =        23.00 (up:  12.00, down:  11.00)
     number of Kohn-Sham states=           14
     kinetic-energy cutoff     =      50.0000  Ry
     charge density cutoff     =     200.0000  Ry
     convergence threshold     =      1.0E-07
     mixing beta               =       0.3000
     number of iterations used =            8  plain     mixing
     Exchange-correlation      = PBE ( 1  4  3  4 0 0)

     celldm(1)=  22.676714  celldm(2)=   0.000000  celldm(3)=   0.000000
     celldm(4)=   0.000000  celldm(5)=   0.000000  celldm(6)=   0.000000

     crystal axes: (cart. coord. in units of alat)
               a(1) = (   1.000000   0.000000   0.000000 )  
               a(2) = (   0.000000   1.000000   0.000000 )  
               a(3) = (   0.000000   0.000000   1.000000 )  

     reciprocal axes: (cart. coord. in units 2 pi/alat)
               b(1) = (  1.000000  0.000000  0.000000 )  
               b(2) = (  0.000000  1.000000  0.000000 )  
               b(3) = (  0.000000  0.000000  1.000000 )  


     PseudoPot. # 1 for Zn read from file:
     ../../pseudo/Zn.pbe-mt_fhi.UPF
     MD5 check sum: 5596c9f2b89b9f7367257e7ea958b26e
     Pseudo is Norm-conserving, Zval = 12.0
     Generated using FHI98PP, converted with fhi2upf.x v.5.0.2
     Using radial grid of  527 points,  3 beta functions with: 
                l(1) =   1
                l(2) =   2
                l(3) =   3

     atomic species   valence    mass     pseudopotential
        Zn            12.00    65.39000     Zn( 1.00)

     Starting magnetic structure 
     atomic species   magnetization
        Zn           0.000

     No symmetry found


                                    s                        frac. trans.

      isym =  1     identity                                     

 cryst.   s( 1) = (     1          0          0      )
                  (     0          1          0      )
                  (     0          0          1      )

 cart.    s( 1) = (  1.0000000  0.0000000  0.0000000 )
                  (  0.0000000  1.0000000  0.0000000 )
                  (  0.0000000  0.0000000  1.0000000 )


     point group C_1 (1)    
     there are  1 classes
     the character table:

       E    
A      1.00

     the symmetry operations in each class:
     E        1

   Cartesian axes

     site n.     atom                  positions (alat units)
         1           Zn  tau(   1) = (   0.4166667   0.4166667   0.3958333  )
         2           Zn  tau(   2) = (   0.4166667   0.4166667   0.2291667  )

   Crystallographic axes

     site n.     atom                  positions (cryst. coord.)
         1           Zn  tau(   1) = (  0.4166667  0.4166667  0.3958333  )
         2           Zn  tau(   2) = (  0.4166667  0.4166667  0.2291667  )

     number of k points=     2
                       cart. coord. in units 2pi/alat
        k(    1) = (   0.0000000   0.0000000   0.0000000), wk =   1.0000000
        k(    2) = (   0.0000000   0.0000000   0.0000000), wk =   1.0000000

                       cryst. coord.
        k(    1) = (   0.0000000   0.0000000   0.0000000), wk =   1.0000000
        k(    2) = (   0.0000000   0.0000000   0.0000000), wk =   1.0000000

     Dense  grid:   278334 G-vectors     FFT dimensions: ( 108, 108, 108)

     Largest allocated arrays     est. size (Mb)     dimensions
        Kohn-Sham Wavefunctions         1.86 Mb     (    8725,   14)
        NL pseudopotentials             3.99 Mb     (    8725,   30)
        Each V/rho on FFT grid          9.61 Mb     (  314928,   2)
        Each G-vector array             0.53 Mb     (   69584)
        G-vector shells                 0.02 Mb     (    2154)
     Largest temporary arrays     est. size (Mb)     dimensions
        Auxiliary wavefunctions         3.73 Mb     (    8725,   56)
        Each subspace H/S matrix        0.02 Mb     (      56,   56)
        Each <psi_i|beta_j> matrix      0.00 Mb     (      30,   14)
        Arrays for rho mixing          38.44 Mb     (  314928,    8)

     Initial potential from superposition of free atoms
     Check: negative starting charge=(component1):   -0.041632
     Check: negative starting charge=(component2):   -0.041632

     starting charge   23.99975, renormalised to   23.00000

     negative rho (up, down):  3.990E-02 3.990E-02
     
     Adding image charge field due to neutral metal slab at origin in XY plane.
     Including monopole and dipole terms.
     Quadrupole not implemented yet.
     System should not overlap with cell edges.
     

     reference position (x0):         9.44863066    9.44863066    7.08647300 bohr
     Total charge   1.0000
     Total dipole moment   0.0004   0.0004   0.0001 au (Ha),   0.0010   0.0010   0.0003 Debye

     Debug on write surface field to cube file.

     First surface image interaction energy:-0.722E-01

     
     Adding image charge field due to neutral metal slab at origin in XY plane.
     Including monopole and dipole terms.
     Quadrupole not implemented yet.
     System should not overlap with cell edges.
     

     reference position (x0):         9.44863066    9.44863066    7.08647300 bohr
     Total charge   1.0000
     Total dipole moment   0.0004   0.0004   0.0001 au (Ha),   0.0010   0.0010   0.0003 Debye

     Debug on write surface field to cube file.
     Starting wfc are   32 randomized atomic wfcs

     total cpu time spent up to now is        6.2 secs

     per-process dynamical memory:    78.4 Mb

     Self-consistent Calculation

     iteration #  1     ecut=    50.00 Ry     beta=0.30
     Davidson diagonalization with overlap
     ethr =  1.00E-02,  avg # of iterations =  4.0

     negative rho (up, down):  2.723E-02 2.748E-02

     Magnetic moment per site:
     atom:    1    charge:    9.3413    magn:    0.0388    constr:    0.0000
     atom:    2    charge:    9.3350    magn:    0.0375    constr:    0.0000

     total cpu time spent up to now is        9.6 secs

     total energy              =    -217.97621781 Ry
     Harris-Foulkes estimate   =    -218.17182843 Ry
     estimated scf accuracy    <       0.53805413 Ry

     total magnetization       =     1.00 Bohr mag/cell
     absolute magnetization    =     1.00 Bohr mag/cell

     iteration #  2     ecut=    50.00 Ry     beta=0.30
     Davidson diagonalization with overlap
     ethr =  2.34E-03,  avg # of iterations =  1.5

     negative rho (up, down):  1.238E-02 1.275E-02

     Magnetic moment per site:
     atom:    1    charge:    9.4637    magn:    0.0774    constr:    0.0000
     atom:    2    charge:    9.4582    magn:    0.0763    constr:    0.0000

     total cpu time spent up to now is       12.5 secs

     total energy              =    -217.96634517 Ry
     Harris-Foulkes estimate   =    -218.01278806 Ry
     estimated scf accuracy    <       0.11794107 Ry

     total magnetization       =     1.00 Bohr mag/cell
     absolute magnetization    =     1.01 Bohr mag/cell

     iteration #  3     ecut=    50.00 Ry     beta=0.30
     Davidson diagonalization with overlap
     ethr =  5.13E-04,  avg # of iterations =  2.0

     negative rho (up, down):  6.639E-03 6.978E-03

     Magnetic moment per site:
     atom:    1    charge:    9.4580    magn:    0.0855    constr:    0.0000
     atom:    2    charge:    9.4561    magn:    0.0851    constr:    0.0000

     total cpu time spent up to now is       16.1 secs

     total energy              =    -217.99288351 Ry
     Harris-Foulkes estimate   =    -217.99161298 Ry
     estimated scf accuracy    <       0.00962511 Ry

     total magnetization       =     1.00 Bohr mag/cell
     absolute magnetization    =     1.04 Bohr mag/cell

     iteration #  4     ecut=    50.00 Ry     beta=0.30
     Davidson diagonalization with overlap
     ethr =  4.18E-05,  avg # of iterations =  2.0

     negative rho (up, down):  2.476E-05 2.557E-05

     Magnetic moment per site:
     atom:    1    charge:    9.4769    magn:    0.0979    constr:    0.0000
     atom:    2    charge:    9.4758    magn:    0.0983    constr:    0.0000

     total cpu time spent up to now is       19.2 secs

     total energy              =    -217.99450475 Ry
     Harris-Foulkes estimate   =    -217.99378131 Ry
     estimated scf accuracy    <       0.00276006 Ry

     total magnetization       =     1.00 Bohr mag/cell
     absolute magnetization    =     1.05 Bohr mag/cell

     iteration #  5     ecut=    50.00 Ry     beta=0.30
     Davidson diagonalization with overlap
     ethr =  1.20E-05,  avg # of iterations =  2.5

     negative rho (up, down):  2.184E-05 2.252E-05

     Magnetic moment per site:
     atom:    1    charge:    9.4708    magn:    0.0958    constr:    0.0000
     atom:    2    charge:    9.4696    magn:    0.0962    constr:    0.0000

     total cpu time spent up to now is       22.3 secs

     total energy              =    -217.99500179 Ry
     Harris-Foulkes estimate   =    -217.99504820 Ry
     estimated scf accuracy    <       0.00034212 Ry

     total magnetization       =     1.00 Bohr mag/cell
     absolute magnetization    =     1.08 Bohr mag/cell

     iteration #  6     ecut=    50.00 Ry     beta=0.30
     Davidson diagonalization with overlap
     ethr =  1.49E-06,  avg # of iterations =  5.5

     Magnetic moment per site:
     atom:    1    charge:    9.4664    magn:    0.0931    constr:    0.0000
     atom:    2    charge:    9.4650    magn:    0.0936    constr:    0.0000

     total cpu time spent up to now is       26.0 secs

     total energy              =    -217.99503249 Ry
     Harris-Foulkes estimate   =    -217.99497374 Ry
     estimated scf accuracy    <       0.00003892 Ry

     total magnetization       =     1.00 Bohr mag/cell
     absolute magnetization    =     1.08 Bohr mag/cell

     iteration #  7     ecut=    50.00 Ry     beta=0.30
     Davidson diagonalization with overlap
     ethr =  1.69E-07,  avg # of iterations =  3.0

     Magnetic moment per site:
     atom:    1    charge:    9.4671    magn:    0.0927    constr:    0.0000
     atom:    2    charge:    9.4658    magn:    0.0932    constr:    0.0000

     total cpu time spent up to now is       29.5 secs

     total energy              =    -217.99504203 Ry
     Harris-Foulkes estimate   =    -217.99504302 Ry
     estimated scf accuracy    <       0.00001505 Ry

     total magnetization       =     1.00 Bohr mag/cell
     absolute magnetization    =     1.09 Bohr mag/cell

     iteration #  8     ecut=    50.00 Ry     beta=0.30
     Davidson diagonalization with overlap
     ethr =  6.54E-08,  avg # of iterations =  2.0

     Magnetic moment per site:
     atom:    1    charge:    9.4672    magn:    0.0925    constr:    0.0000
     atom:    2    charge:    9.4658    magn:    0.0930    constr:    0.0000

     total cpu time spent up to now is       32.7 secs

     total energy              =    -217.99503946 Ry
     Harris-Foulkes estimate   =    -217.99504394 Ry
     estimated scf accuracy    <       0.00000118 Ry

     total magnetization       =     1.00 Bohr mag/cell
     absolute magnetization    =     1.09 Bohr mag/cell

     iteration #  9     ecut=    50.00 Ry     beta=0.30
     Davidson diagonalization with overlap
     ethr =  5.15E-09,  avg # of iterations =  2.5

     Magnetic moment per site:
     atom:    1    charge:    9.4674    magn:    0.0925    constr:    0.0000
     atom:    2    charge:    9.4661    magn:    0.0929    constr:    0.0000

     total cpu time spent up to now is       35.7 secs

     total energy              =    -217.99504297 Ry
     Harris-Foulkes estimate   =    -217.99504409 Ry
     estimated scf accuracy    <       0.00000042 Ry

     total magnetization       =     1.00 Bohr mag/cell
     absolute magnetization    =     1.09 Bohr mag/cell

     iteration # 10     ecut=    50.00 Ry     beta=0.30
     Davidson diagonalization with overlap
     ethr =  1.84E-09,  avg # of iterations =  2.0
     
     Adding image charge field due to neutral metal slab at origin in XY plane.
     Including monopole and dipole terms.
     Quadrupole not implemented yet.
     System should not overlap with cell edges.
     

     reference position (x0):         9.44863066    9.44863066    7.08647300 bohr
     Total charge   1.0000
     Total dipole moment  -0.0004  -0.0004  -0.1975 au (Ha),  -0.0010  -0.0010  -0.5021 Debye

     Debug on write surface field to cube file.
       I         D           A         Val      Target            Str
       1 0.109E+01   0.104E+01   0.478E-01   0.000E+00   0.000000E+00
     Image interaction energy: -0.724E-01 Change: -0.274E-03 Tolerance:  0.100E-04

     Magnetic moment per site:
     atom:    1    charge:    9.4674    magn:    0.0925    constr:    0.0000
     atom:    2    charge:    9.4661    magn:    0.0929    constr:    0.0000

     total cpu time spent up to now is       40.5 secs

     total energy              =    -217.99504374 Ry
     Harris-Foulkes estimate   =    -217.99504439 Ry
     estimated scf accuracy    <       0.00000008 Ry

     total magnetization       =     1.00 Bohr mag/cell
     absolute magnetization    =     1.09 Bohr mag/cell

     iteration # 11     ecut=    50.00 Ry     beta=0.30
     Davidson diagonalization with overlap
     ethr =  3.34E-10,  avg # of iterations =  1.0
     
     Adding image charge field due to neutral metal slab at origin in XY plane.
     Including monopole and dipole terms.
     Quadrupole not implemented yet.
     System should not overlap with cell edges.
     

     reference position (x0):         9.44863066    9.44863066    7.08647300 bohr
     Total charge   1.0000
     Total dipole moment  -0.0004  -0.0004  -0.1975 au (Ha),  -0.0010  -0.0010  -0.5021 Debye

     Debug on write surface field to cube file.
       I         D           A         Val      Target            Str
       1 0.109E+01   0.104E+01   0.478E-01   0.000E+00   0.000000E+00
     Image interaction energy: -0.724E-01 Change: -0.126E-07 Tolerance:  0.100E-04
     
     Adding image charge field due to neutral metal slab at origin in XY plane.
     Including monopole and dipole terms.
     Quadrupole not implemented yet.
     System should not overlap with cell edges.
     

     reference position (x0):         9.44863066    9.44863066    7.08647300 bohr
     Total charge   1.0000
     Total dipole moment  -0.0004  -0.0004  -0.1975 au (Ha),  -0.0010  -0.0010  -0.5021 Debye

     Debug on write surface field to cube file.

     Magnetic moment per site:
     atom:    1    charge:    9.4673    magn:    0.0925    constr:    0.0000
     atom:    2    charge:    9.4659    magn:    0.0930    constr:    0.0000

     total cpu time spent up to now is       45.4 secs

     End of self-consistent calculation

 ------ SPIN UP ------------


          k = 0.0000 0.0000 0.0000 ( 34896 PWs)   bands (ev):

   -14.5100   -13.7970   -13.7970   -13.0259   -13.0217   -12.7943   -12.7774   -12.5626
   -12.5626   -12.5160   -10.5657    -6.7037    -3.9397    -3.0846
     occupation numbers 
     1.0000   1.0000   1.0000   1.0000   1.0000   1.0000   1.0000   1.0000
     1.0000   1.0000   1.0000   1.0000   0.0000   0.0000

 ------ SPIN DOWN ----------


          k = 0.0000 0.0000 0.0000 ( 34896 PWs)   bands (ev):

   -14.3779   -13.6877   -13.6877   -12.9478   -12.9435   -12.7151   -12.6983   -12.4081
   -12.4081   -12.3289   -10.3208    -5.7805    -3.5865    -3.5864
     occupation numbers 
     1.0000   1.0000   1.0000   1.0000   1.0000   1.0000   1.0000   1.0000
     1.0000   1.0000   1.0000   0.0000   0.0000   0.0000

     highest occupied level (ev):    -6.7037
     
     Adding image charge field due to neutral metal slab at origin in XY plane.
     Including monopole and dipole terms.
     Quadrupole not implemented yet.
     System should not overlap with cell edges.
     

     reference position (x0):         9.44863066    9.44863066    7.08647300 bohr
     Total charge   1.0000
     Total dipole moment  -0.0004  -0.0004  -0.1975 au (Ha),  -0.0010  -0.0010  -0.5021 Debye

     Debug on write surface field to cube file.
       I         D           A         Val      Target            Str
       1 0.109E+01   0.104E+01   0.478E-01   0.000E+00   0.000000E+00
     Image interaction energy: -0.724E-01 Change: -0.126E-07 Tolerance:  0.100E-04

!    total energy              =    -217.99504442 Ry
     Harris-Foulkes estimate   =    -217.99504439 Ry
     estimated scf accuracy    <       0.00000008 Ry

     The total energy is the sum of the following terms:

     one-electron contribution =    -400.00420648 Ry
     hartree contribution      =     209.59691877 Ry
     xc contribution           =     -32.48734169 Ry
     ewald contribution        =       4.90223735 Ry
     CDFT correction           =      -0.00000000 Ry
     scf correction            =      -0.00265238 Ry

     total magnetization       =     1.00 Bohr mag/cell
     absolute magnetization    =     1.09 Bohr mag/cell

     convergence has been achieved in  11 iterations

     Writing output data file left.save

     init_run     :      5.53s CPU      6.11s WALL (       1 calls)
     electrons    :     37.50s CPU     41.04s WALL (       1 calls)

     Called by init_run:
     wfcinit      :      1.14s CPU      1.28s WALL (       1 calls)
     potinit      :      3.81s CPU      4.11s WALL (       1 calls)

     Called by electrons:
     c_bands      :     15.39s CPU     16.98s WALL (      11 calls)
     sum_band     :      4.25s CPU      4.58s WALL (      11 calls)
     v_of_rho     :     10.57s CPU     11.56s WALL (      11 calls)
     v_h          :      0.34s CPU      0.40s WALL (      11 calls)
     v_xc         :     10.23s CPU     11.16s WALL (      11 calls)
     mix_rho      :      1.47s CPU      1.61s WALL (      11 calls)

     Called by c_bands:
     init_us_2    :      0.35s CPU      0.39s WALL (      46 calls)
     regterg      :     14.68s CPU     16.16s WALL (      22 calls)

     Called by sum_band:

     Called by *egterg:
     h_psi        :     14.34s CPU     15.77s WALL (      80 calls)
     g_psi        :      0.06s CPU      0.08s WALL (      56 calls)
     rdiaghg      :      0.04s CPU      0.04s WALL (      78 calls)
     regterg:over :      0.48s CPU      0.53s WALL (      56 calls)
     regterg:upda :      0.28s CPU      0.32s WALL (      56 calls)
     regterg:last :      0.12s CPU      0.14s WALL (      22 calls)

     Called by h_psi:
     h_psi:vloc   :     13.56s CPU     14.89s WALL (      80 calls)
     h_psi:vnl    :      0.72s CPU      0.80s WALL (      80 calls)
     add_vuspsi   :      0.32s CPU      0.35s WALL (      80 calls)

     General routines
     calbec       :      0.40s CPU      0.45s WALL (      80 calls)
     fft          :      6.86s CPU      7.49s WALL (     292 calls)
     fftw         :     13.77s CPU     15.07s WALL (    1026 calls)

     Parallel routines
     fft_scatter  :     10.64s CPU     11.60s WALL (    1318 calls)

     PWSCF        :    43.24s CPU        47.45s WALL


   This run was terminated on:   8:53:49  10May2016            

=------------------------------------------------------------------------------=
   JOB DONE.
=------------------------------------------------------------------------------=
