
     Program PWSCF v.5.1.1 starts on 10May2016 at 14:21:22 

     This program is part of the open-source Quantum ESPRESSO suite
     for quantum simulation of materials; please cite
         "P. Giannozzi et al., J. Phys.:Condens. Matter 21 395502 (2009);
          URL http://www.quantum-espresso.org", 
     in publications or presentations arising from this work. More details at
     http://www.quantum-espresso.org/quote

     Parallel version (MPI), running on     4 processors
     R & G space division:  proc/nbgrp/npool/nimage =       4
     Waiting for input...
     Reading input from standard input
 Reading EPCDFT CARD. Printing based upon belief that input should be reproducable from output.
     Reading   1 constraint(s); tolerance:  100.000000 max change in field 0.01
     epcdft_update_intrvl: 100
     epcdft with surface: T
          constraint           type   A   A   D   D      T      L
                   1  delta_charge    1   1   2   2 0.0000 0.0000

     Current dimensions of program PWSCF are:
     Max number of different atomic species (ntypx) = 10
     Max number of k-points (npk) =  40000
     Max angular momentum in pseudopotentials (lmaxx) =  3
               file Zn.pbe-mt_fhi.UPF: wavefunction(s)  4p 4f renormalized

     gamma-point specific algorithms are used
     Message from routine setup:
     the system is metallic, specify occupations

     Subspace diagonalization in iterative solution of the eigenvalue problem:
     a serial algorithm will be used


     Parallelization info
     --------------------
     sticks:   dense  smooth     PW     G-vecs:    dense   smooth      PW
     Min        2047    2047    512               139165   139165   17446
     Max        2052    2052    514               139168   139168   17450
     Sum        8197    8197   2053               556667   556667   69791
     Tot        4099    4099   1027

     Generating pointlists ...
     new r_m :   0.0688 (alat units)  1.5590 (a.u.) for type    1


     bravais-lattice index     =            1
     lattice parameter (alat)  =      22.6767  a.u.
     unit-cell volume          =   11661.1222 (a.u.)^3
     number of atoms/cell      =            2
     number of atomic types    =            1
     number of electrons       =        23.00 (up:  12.00, down:  11.00)
     number of Kohn-Sham states=           14
     kinetic-energy cutoff     =      50.0000  Ry
     charge density cutoff     =     200.0000  Ry
     convergence threshold     =      1.0E-07
     mixing beta               =       0.3000
     number of iterations used =            8  plain     mixing
     Exchange-correlation      = PBE ( 1  4  3  4 0 0)

     celldm(1)=  22.676714  celldm(2)=   0.000000  celldm(3)=   0.000000
     celldm(4)=   0.000000  celldm(5)=   0.000000  celldm(6)=   0.000000

     crystal axes: (cart. coord. in units of alat)
               a(1) = (   1.000000   0.000000   0.000000 )  
               a(2) = (   0.000000   1.000000   0.000000 )  
               a(3) = (   0.000000   0.000000   1.000000 )  

     reciprocal axes: (cart. coord. in units 2 pi/alat)
               b(1) = (  1.000000  0.000000  0.000000 )  
               b(2) = (  0.000000  1.000000  0.000000 )  
               b(3) = (  0.000000  0.000000  1.000000 )  


     PseudoPot. # 1 for Zn read from file:
     ../../pseudo/Zn.pbe-mt_fhi.UPF
     MD5 check sum: 5596c9f2b89b9f7367257e7ea958b26e
     Pseudo is Norm-conserving, Zval = 12.0
     Generated using FHI98PP, converted with fhi2upf.x v.5.0.2
     Using radial grid of  527 points,  3 beta functions with: 
                l(1) =   1
                l(2) =   2
                l(3) =   3

     atomic species   valence    mass     pseudopotential
        Zn            12.00    65.39000     Zn( 1.00)

     Starting magnetic structure 
     atomic species   magnetization
        Zn           0.000

     No symmetry found


                                    s                        frac. trans.

      isym =  1     identity                                     

 cryst.   s( 1) = (     1          0          0      )
                  (     0          1          0      )
                  (     0          0          1      )

 cart.    s( 1) = (  1.0000000  0.0000000  0.0000000 )
                  (  0.0000000  1.0000000  0.0000000 )
                  (  0.0000000  0.0000000  1.0000000 )


     point group C_1 (1)    
     there are  1 classes
     the character table:

       E    
A      1.00

     the symmetry operations in each class:
     E        1

   Cartesian axes

     site n.     atom                  positions (alat units)
         1           Zn  tau(   1) = (   0.4166667   0.4166667   0.3333333  )
         2           Zn  tau(   2) = (   0.4166667   0.4166667   0.1666667  )

   Crystallographic axes

     site n.     atom                  positions (cryst. coord.)
         1           Zn  tau(   1) = (  0.4166667  0.4166667  0.3333333  )
         2           Zn  tau(   2) = (  0.4166667  0.4166667  0.1666667  )

     number of k points=     2
                       cart. coord. in units 2pi/alat
        k(    1) = (   0.0000000   0.0000000   0.0000000), wk =   1.0000000
        k(    2) = (   0.0000000   0.0000000   0.0000000), wk =   1.0000000

                       cryst. coord.
        k(    1) = (   0.0000000   0.0000000   0.0000000), wk =   1.0000000
        k(    2) = (   0.0000000   0.0000000   0.0000000), wk =   1.0000000

     Dense  grid:   278334 G-vectors     FFT dimensions: ( 108, 108, 108)

     Largest allocated arrays     est. size (Mb)     dimensions
        Kohn-Sham Wavefunctions         1.86 Mb     (    8725,   14)
        NL pseudopotentials             3.99 Mb     (    8725,   30)
        Each V/rho on FFT grid          9.61 Mb     (  314928,   2)
        Each G-vector array             0.53 Mb     (   69584)
        G-vector shells                 0.02 Mb     (    2154)
     Largest temporary arrays     est. size (Mb)     dimensions
        Auxiliary wavefunctions         3.73 Mb     (    8725,   56)
        Each subspace H/S matrix        0.02 Mb     (      56,   56)
        Each <psi_i|beta_j> matrix      0.00 Mb     (      30,   14)
        Arrays for rho mixing          38.44 Mb     (  314928,    8)

     Initial potential from superposition of free atoms
     Check: negative starting charge=(component1):   -0.041597
     Check: negative starting charge=(component2):   -0.041597

     starting charge   23.99975, renormalised to   23.00000

     negative rho (up, down):  3.986E-02 3.986E-02
     
     Adding image charge field due to neutral metal slab at origin in XY plane.
     Including monopole and dipole terms.
     Quadrupole not implemented yet.
     System should not overlap with cell edges.
     

     reference position (x0):         9.44863066    9.44863066    5.66917840 bohr
     Total charge   1.0000
     Total dipole moment   0.0004   0.0004   0.0002 au (Ha),   0.0010   0.0010   0.0004 Debye


     First surface image interaction energy:-0.188E+00[Ry]


     reference position (x0):         9.44863066    9.44863066    5.66917840 bohr
     Total charge   1.0000
     Total dipole moment   0.0004   0.0004   0.0002 au (Ha),   0.0010   0.0010   0.0004 Debye

     Starting wfc are   32 randomized atomic wfcs

     total cpu time spent up to now is        4.0 secs

     per-process dynamical memory:    78.4 Mb

     Self-consistent Calculation

     iteration #  1     ecut=    50.00 Ry     beta=0.30
     Davidson diagonalization with overlap
     ethr =  1.00E-02,  avg # of iterations =  4.0

     negative rho (up, down):  2.716E-02 2.745E-02

     Magnetic moment per site:
     atom:    1    charge:    9.3482    magn:    0.0397    constr:    0.0000
     atom:    2    charge:    9.3273    magn:    0.0360    constr:    0.0000

     total cpu time spent up to now is        7.3 secs

     total energy              =    -217.96145953 Ry
     Harris-Foulkes estimate   =    -218.18048637 Ry
     estimated scf accuracy    <       0.55628370 Ry

     total magnetization       =     1.00 Bohr mag/cell
     absolute magnetization    =     1.00 Bohr mag/cell

     iteration #  2     ecut=    50.00 Ry     beta=0.30
     Davidson diagonalization with overlap
     ethr =  2.42E-03,  avg # of iterations =  1.5

     negative rho (up, down):  1.241E-02 1.284E-02

     Magnetic moment per site:
     atom:    1    charge:    9.4685    magn:    0.0776    constr:    0.0000
     atom:    2    charge:    9.4484    magn:    0.0745    constr:    0.0000

     total cpu time spent up to now is       10.5 secs

     total energy              =    -217.95991063 Ry
     Harris-Foulkes estimate   =    -218.01103907 Ry
     estimated scf accuracy    <       0.11917396 Ry

     total magnetization       =     1.00 Bohr mag/cell
     absolute magnetization    =     1.01 Bohr mag/cell

     iteration #  3     ecut=    50.00 Ry     beta=0.30
     Davidson diagonalization with overlap
     ethr =  5.18E-04,  avg # of iterations =  2.0

     negative rho (up, down):  6.401E-03 6.786E-03

     Magnetic moment per site:
     atom:    1    charge:    9.4599    magn:    0.0856    constr:    0.0000
     atom:    2    charge:    9.4518    magn:    0.0846    constr:    0.0000

     total cpu time spent up to now is       16.8 secs

     total energy              =    -217.98967693 Ry
     Harris-Foulkes estimate   =    -217.98720347 Ry
     estimated scf accuracy    <       0.00985745 Ry

     total magnetization       =     1.00 Bohr mag/cell
     absolute magnetization    =     1.04 Bohr mag/cell

     iteration #  4     ecut=    50.00 Ry     beta=0.30
     Davidson diagonalization with overlap
     ethr =  4.29E-05,  avg # of iterations =  2.0

     negative rho (up, down):  4.522E-05 4.734E-05

     Magnetic moment per site:
     atom:    1    charge:    9.4799    magn:    0.0972    constr:    0.0000
     atom:    2    charge:    9.4728    magn:    0.0982    constr:    0.0000

     total cpu time spent up to now is       28.4 secs

     total energy              =    -217.98945912 Ry
     Harris-Foulkes estimate   =    -217.99014287 Ry
     estimated scf accuracy    <       0.00281281 Ry

     total magnetization       =     1.00 Bohr mag/cell
     absolute magnetization    =     1.05 Bohr mag/cell

     iteration #  5     ecut=    50.00 Ry     beta=0.30
     Davidson diagonalization with overlap
     ethr =  1.22E-05,  avg # of iterations =  2.5

     negative rho (up, down):  1.992E-05 2.074E-05

     Magnetic moment per site:
     atom:    1    charge:    9.4724    magn:    0.0947    constr:    0.0000
     atom:    2    charge:    9.4654    magn:    0.0960    constr:    0.0000

     total cpu time spent up to now is       37.9 secs

     total energy              =    -217.99094210 Ry
     Harris-Foulkes estimate   =    -217.99058307 Ry
     estimated scf accuracy    <       0.00054549 Ry

     total magnetization       =     1.00 Bohr mag/cell
     absolute magnetization    =     1.08 Bohr mag/cell

     iteration #  6     ecut=    50.00 Ry     beta=0.30
     Davidson diagonalization with overlap
     ethr =  2.37E-06,  avg # of iterations =  5.5

     negative rho (up, down):  1.142E-08 1.229E-08

     Magnetic moment per site:
     atom:    1    charge:    9.4699    magn:    0.0928    constr:    0.0000
     atom:    2    charge:    9.4626    magn:    0.0942    constr:    0.0000

     total cpu time spent up to now is       51.5 secs

     total energy              =    -217.99076246 Ry
     Harris-Foulkes estimate   =    -217.99058032 Ry
     estimated scf accuracy    <       0.00003529 Ry

     total magnetization       =     1.00 Bohr mag/cell
     absolute magnetization    =     1.08 Bohr mag/cell

     iteration #  7     ecut=    50.00 Ry     beta=0.30
     Davidson diagonalization with overlap
     ethr =  1.53E-07,  avg # of iterations =  3.0

     Magnetic moment per site:
     atom:    1    charge:    9.4688    magn:    0.0919    constr:    0.0000
     atom:    2    charge:    9.4616    magn:    0.0933    constr:    0.0000

     total cpu time spent up to now is       61.6 secs

     total energy              =    -217.99069494 Ry
     Harris-Foulkes estimate   =    -217.99066727 Ry
     estimated scf accuracy    <       0.00000463 Ry

     total magnetization       =     1.00 Bohr mag/cell
     absolute magnetization    =     1.09 Bohr mag/cell

     iteration #  8     ecut=    50.00 Ry     beta=0.30
     Davidson diagonalization with overlap
     ethr =  2.01E-08,  avg # of iterations =  3.0

     Magnetic moment per site:
     atom:    1    charge:    9.4694    magn:    0.0917    constr:    0.0000
     atom:    2    charge:    9.4621    magn:    0.0931    constr:    0.0000

     total cpu time spent up to now is       64.8 secs

     total energy              =    -217.99063765 Ry
     Harris-Foulkes estimate   =    -217.99070869 Ry
     estimated scf accuracy    <       0.00000433 Ry

     total magnetization       =     1.00 Bohr mag/cell
     absolute magnetization    =     1.09 Bohr mag/cell

     iteration #  9     ecut=    50.00 Ry     beta=0.30
     Davidson diagonalization with overlap
     ethr =  1.88E-08,  avg # of iterations =  2.0

     Magnetic moment per site:
     atom:    1    charge:    9.4691    magn:    0.0915    constr:    0.0000
     atom:    2    charge:    9.4620    magn:    0.0929    constr:    0.0000

     total cpu time spent up to now is       67.9 secs

     total energy              =    -217.99068763 Ry
     Harris-Foulkes estimate   =    -217.99068520 Ry
     estimated scf accuracy    <       0.00000013 Ry

     total magnetization       =     1.00 Bohr mag/cell
     absolute magnetization    =     1.09 Bohr mag/cell

     iteration # 10     ecut=    50.00 Ry     beta=0.30
     Davidson diagonalization with overlap
     ethr =  5.46E-10,  avg # of iterations =  3.0

     Magnetic moment per site:
     atom:    1    charge:    9.4694    magn:    0.0915    constr:    0.0000
     atom:    2    charge:    9.4621    magn:    0.0929    constr:    0.0000

     total cpu time spent up to now is       71.2 secs

     total energy              =    -217.99067996 Ry
     Harris-Foulkes estimate   =    -217.99069488 Ry
     estimated scf accuracy    <       0.00000029 Ry

     total magnetization       =     1.00 Bohr mag/cell
     absolute magnetization    =     1.09 Bohr mag/cell

     iteration # 11     ecut=    50.00 Ry     beta=0.30
     Davidson diagonalization with overlap
     ethr =  5.46E-10,  avg # of iterations =  3.0

     reference position (x0):         9.44863066    9.44863066    5.66917840 bohr
     Total charge   1.0000
     Total dipole moment  -0.0004  -0.0004  -0.5640 au (Ha),  -0.0010  -0.0010  -1.4335 Debye

       I         D           A         Val      Target            Str
       1 0.114E+01   0.998E+00   0.141E+00   0.000E+00   0.000000E+00
     Image interaction energy: -0.185E+00 [Ry] Change:  0.291E-02 [Ry] Tolerance:  0.100E-04 [Ry]

     Magnetic moment per site:
     atom:    1    charge:    9.4694    magn:    0.0915    constr:    0.0000
     atom:    2    charge:    9.4621    magn:    0.0929    constr:    0.0000

     total cpu time spent up to now is       74.8 secs

     total energy              =    -217.99069463 Ry
     Harris-Foulkes estimate   =    -217.99068921 Ry
     estimated scf accuracy    <          6.0E-09 Ry

     total magnetization       =     1.00 Bohr mag/cell
     absolute magnetization    =     1.09 Bohr mag/cell

     iteration # 12     ecut=    50.00 Ry     beta=0.30
     Davidson diagonalization with overlap
     ethr =  2.59E-11,  avg # of iterations =  1.5

     reference position (x0):         9.44863066    9.44863066    5.66917840 bohr
     Total charge   1.0000
     Total dipole moment  -0.0004  -0.0004  -0.5640 au (Ha),  -0.0010  -0.0010  -1.4335 Debye

       I         D           A         Val      Target            Str
       1 0.114E+01   0.998E+00   0.141E+00   0.000E+00   0.000000E+00
     Image interaction energy: -0.185E+00 [Ry] Change: -0.120E-07 [Ry] Tolerance:  0.100E-04 [Ry]

     reference position (x0):         9.44863066    9.44863066    5.66917840 bohr
     Total charge   1.0000
     Total dipole moment  -0.0004  -0.0004  -0.5640 au (Ha),  -0.0010  -0.0010  -1.4335 Debye


     Magnetic moment per site:
     atom:    1    charge:    9.4693    magn:    0.0916    constr:    0.0000
     atom:    2    charge:    9.4621    magn:    0.0930    constr:    0.0000

     total cpu time spent up to now is       77.4 secs

     End of self-consistent calculation

 ------ SPIN UP ------------


          k = 0.0000 0.0000 0.0000 ( 34896 PWs)   bands (ev):

   -13.0364   -12.3336   -12.3336   -11.5729   -11.5695   -11.3267   -11.3102   -11.0938
   -11.0938   -11.0441    -9.1197    -5.2172    -2.5250    -1.6219
     occupation numbers 
     1.0000   1.0000   1.0000   1.0000   1.0000   1.0000   1.0000   1.0000
     1.0000   1.0000   1.0000   1.0000   0.0000   0.0000

 ------ SPIN DOWN ----------


          k = 0.0000 0.0000 0.0000 ( 34896 PWs)   bands (ev):

   -12.9021   -12.2241   -12.2241   -11.4980   -11.4946   -11.2465   -11.2303   -10.9406
   -10.9406   -10.8581    -8.8745    -4.2947    -2.1732    -2.1732
     occupation numbers 
     1.0000   1.0000   1.0000   1.0000   1.0000   1.0000   1.0000   1.0000
     1.0000   1.0000   1.0000   0.0000   0.0000   0.0000

     highest occupied level (ev):    -5.2172

     reference position (x0):         9.44863066    9.44863066    5.66917840 bohr
     Total charge   1.0000
     Total dipole moment  -0.0004  -0.0004  -0.5640 au (Ha),  -0.0010  -0.0010  -1.4335 Debye

       I         D           A         Val      Target            Str
       1 0.114E+01   0.998E+00   0.141E+00   0.000E+00   0.000000E+00
     Image interaction energy: -0.185E+00 [Ry] Change: -0.120E-07 [Ry] Tolerance:  0.100E-04 [Ry]

!    total energy              =    -217.99069163 Ry
     Harris-Foulkes estimate   =    -217.99068921 Ry
     estimated scf accuracy    <          6.0E-09 Ry

     The total energy is the sum of the following terms:

     one-electron contribution =    -399.96760954 Ry
     hartree contribution      =     209.55817185 Ry
     xc contribution           =     -32.48275773 Ry
     ewald contribution        =       4.90223735 Ry
     CDFT correction           =      -0.00000000 Ry
     scf correction            =      -0.00073356 Ry

     total magnetization       =     1.00 Bohr mag/cell
     absolute magnetization    =     1.09 Bohr mag/cell

     convergence has been achieved in  12 iterations

     Writing output data file left.save

     init_run     :      3.63s CPU      3.91s WALL (       1 calls)
     electrons    :     60.20s CPU     74.07s WALL (       1 calls)

     Called by init_run:
     wfcinit      :      1.43s CPU      1.61s WALL (       1 calls)
     potinit      :      1.59s CPU      1.68s WALL (       1 calls)

     Called by electrons:
     c_bands      :     30.77s CPU     38.72s WALL (      12 calls)
     sum_band     :      8.90s CPU     10.72s WALL (      12 calls)
     v_of_rho     :     16.03s CPU     19.39s WALL (      12 calls)
     v_h          :      0.59s CPU      0.73s WALL (      12 calls)
     v_xc         :     15.44s CPU     18.66s WALL (      12 calls)
     mix_rho      :      2.65s CPU      3.24s WALL (      12 calls)

     Called by c_bands:
     init_us_2    :      0.38s CPU      0.43s WALL (      50 calls)
     regterg      :     29.95s CPU     37.75s WALL (      24 calls)

     Called by sum_band:

     Called by *egterg:
     h_psi        :     27.98s CPU     35.29s WALL (      92 calls)
     g_psi        :      0.07s CPU      0.07s WALL (      66 calls)
     rdiaghg      :      0.45s CPU      0.60s WALL (      90 calls)
     regterg:over :      1.14s CPU      1.37s WALL (      66 calls)
     regterg:upda :      0.34s CPU      0.39s WALL (      66 calls)
     regterg:last :      0.13s CPU      0.14s WALL (      24 calls)

     Called by h_psi:
     h_psi:vloc   :     26.42s CPU     33.48s WALL (      92 calls)
     h_psi:vnl    :      1.49s CPU      1.72s WALL (      92 calls)
     add_vuspsi   :      0.36s CPU      0.39s WALL (      92 calls)

     General routines
     calbec       :      1.13s CPU      1.33s WALL (      92 calls)
     fft          :     13.53s CPU     16.66s WALL (     313 calls)
     fftw         :     29.50s CPU     37.59s WALL (    1156 calls)

     Parallel routines
     fft_scatter  :     32.05s CPU     41.58s WALL (    1469 calls)

     PWSCF        :  1m 4.01s CPU     1m18.21s WALL


   This run was terminated on:  14:22:40  10May2016            

=------------------------------------------------------------------------------=
   JOB DONE.
=------------------------------------------------------------------------------=
