
     Program PWSCF v.5.1.1 starts on 10May2016 at  8:51:23 

     This program is part of the open-source Quantum ESPRESSO suite
     for quantum simulation of materials; please cite
         "P. Giannozzi et al., J. Phys.:Condens. Matter 21 395502 (2009);
          URL http://www.quantum-espresso.org", 
     in publications or presentations arising from this work. More details at
     http://www.quantum-espresso.org/quote

     Parallel version (MPI), running on     4 processors
     R & G space division:  proc/nbgrp/npool/nimage =       4
     Waiting for input...
     Reading input from standard input
 Reading EPCDFT CARD. Printing based upon belief that input should be reproducable from output.
     Reading   1 constraint(s); tolerance:  100.000000 max change in field 0.01
     epcdft_update_intrvl: 100
     epcdft with surface: T
          constraint           type   A   A   D   D      T      L
                   1  delta_charge    1   1   2   2 0.0000 0.0000

     Current dimensions of program PWSCF are:
     Max number of different atomic species (ntypx) = 10
     Max number of k-points (npk) =  40000
     Max angular momentum in pseudopotentials (lmaxx) =  3
               file Zn.pbe-mt_fhi.UPF: wavefunction(s)  4p 4f renormalized

     gamma-point specific algorithms are used
     Message from routine setup:
     the system is metallic, specify occupations

     Subspace diagonalization in iterative solution of the eigenvalue problem:
     a serial algorithm will be used


     Parallelization info
     --------------------
     sticks:   dense  smooth     PW     G-vecs:    dense   smooth      PW
     Min        2047    2047    512               139165   139165   17446
     Max        2052    2052    514               139168   139168   17450
     Sum        8197    8197   2053               556667   556667   69791
     Tot        4099    4099   1027

     Generating pointlists ...
     new r_m :   0.0688 (alat units)  1.5590 (a.u.) for type    1


     bravais-lattice index     =            1
     lattice parameter (alat)  =      22.6767  a.u.
     unit-cell volume          =   11661.1222 (a.u.)^3
     number of atoms/cell      =            2
     number of atomic types    =            1
     number of electrons       =        23.00 (up:  12.00, down:  11.00)
     number of Kohn-Sham states=           14
     kinetic-energy cutoff     =      50.0000  Ry
     charge density cutoff     =     200.0000  Ry
     convergence threshold     =      1.0E-07
     mixing beta               =       0.3000
     number of iterations used =            8  plain     mixing
     Exchange-correlation      = PBE ( 1  4  3  4 0 0)

     celldm(1)=  22.676714  celldm(2)=   0.000000  celldm(3)=   0.000000
     celldm(4)=   0.000000  celldm(5)=   0.000000  celldm(6)=   0.000000

     crystal axes: (cart. coord. in units of alat)
               a(1) = (   1.000000   0.000000   0.000000 )  
               a(2) = (   0.000000   1.000000   0.000000 )  
               a(3) = (   0.000000   0.000000   1.000000 )  

     reciprocal axes: (cart. coord. in units 2 pi/alat)
               b(1) = (  1.000000  0.000000  0.000000 )  
               b(2) = (  0.000000  1.000000  0.000000 )  
               b(3) = (  0.000000  0.000000  1.000000 )  


     PseudoPot. # 1 for Zn read from file:
     ../../pseudo/Zn.pbe-mt_fhi.UPF
     MD5 check sum: 5596c9f2b89b9f7367257e7ea958b26e
     Pseudo is Norm-conserving, Zval = 12.0
     Generated using FHI98PP, converted with fhi2upf.x v.5.0.2
     Using radial grid of  527 points,  3 beta functions with: 
                l(1) =   1
                l(2) =   2
                l(3) =   3

     atomic species   valence    mass     pseudopotential
        Zn            12.00    65.39000     Zn( 1.00)

     Starting magnetic structure 
     atomic species   magnetization
        Zn           0.000

     No symmetry found


                                    s                        frac. trans.

      isym =  1     identity                                     

 cryst.   s( 1) = (     1          0          0      )
                  (     0          1          0      )
                  (     0          0          1      )

 cart.    s( 1) = (  1.0000000  0.0000000  0.0000000 )
                  (  0.0000000  1.0000000  0.0000000 )
                  (  0.0000000  0.0000000  1.0000000 )


     point group C_1 (1)    
     there are  1 classes
     the character table:

       E    
A      1.00

     the symmetry operations in each class:
     E        1

   Cartesian axes

     site n.     atom                  positions (alat units)
         1           Zn  tau(   1) = (   0.4166667   0.4166667   0.3541667  )
         2           Zn  tau(   2) = (   0.4166667   0.4166667   0.1875000  )

   Crystallographic axes

     site n.     atom                  positions (cryst. coord.)
         1           Zn  tau(   1) = (  0.4166667  0.4166667  0.3541667  )
         2           Zn  tau(   2) = (  0.4166667  0.4166667  0.1875000  )

     number of k points=     2
                       cart. coord. in units 2pi/alat
        k(    1) = (   0.0000000   0.0000000   0.0000000), wk =   1.0000000
        k(    2) = (   0.0000000   0.0000000   0.0000000), wk =   1.0000000

                       cryst. coord.
        k(    1) = (   0.0000000   0.0000000   0.0000000), wk =   1.0000000
        k(    2) = (   0.0000000   0.0000000   0.0000000), wk =   1.0000000

     Dense  grid:   278334 G-vectors     FFT dimensions: ( 108, 108, 108)

     Largest allocated arrays     est. size (Mb)     dimensions
        Kohn-Sham Wavefunctions         1.86 Mb     (    8725,   14)
        NL pseudopotentials             3.99 Mb     (    8725,   30)
        Each V/rho on FFT grid          9.61 Mb     (  314928,   2)
        Each G-vector array             0.53 Mb     (   69584)
        G-vector shells                 0.02 Mb     (    2154)
     Largest temporary arrays     est. size (Mb)     dimensions
        Auxiliary wavefunctions         3.73 Mb     (    8725,   56)
        Each subspace H/S matrix        0.02 Mb     (      56,   56)
        Each <psi_i|beta_j> matrix      0.00 Mb     (      30,   14)
        Arrays for rho mixing          38.44 Mb     (  314928,    8)

     Initial potential from superposition of free atoms
     Check: negative starting charge=(component1):   -0.041632
     Check: negative starting charge=(component2):   -0.041632

     starting charge   23.99975, renormalised to   23.00000

     negative rho (up, down):  3.990E-02 3.990E-02
     
     Adding image charge field due to neutral metal slab at origin in XY plane.
     Including monopole and dipole terms.
     Quadrupole not implemented yet.
     System should not overlap with cell edges.
     

     reference position (x0):         9.44863066    9.44863066    6.14160993 bohr
     Total charge   1.0000
     Total dipole moment   0.0004   0.0004  -0.0001 au (Ha),   0.0010   0.0010  -0.0003 Debye

     Debug on write surface field to cube file.

     First surface image interaction energy:-0.849E-01

     
     Adding image charge field due to neutral metal slab at origin in XY plane.
     Including monopole and dipole terms.
     Quadrupole not implemented yet.
     System should not overlap with cell edges.
     

     reference position (x0):         9.44863066    9.44863066    6.14160993 bohr
     Total charge   1.0000
     Total dipole moment   0.0004   0.0004  -0.0001 au (Ha),   0.0010   0.0010  -0.0003 Debye

     Debug on write surface field to cube file.
     Starting wfc are   32 randomized atomic wfcs

     total cpu time spent up to now is        6.2 secs

     per-process dynamical memory:    78.3 Mb

     Self-consistent Calculation

     iteration #  1     ecut=    50.00 Ry     beta=0.30
     Davidson diagonalization with overlap
     ethr =  1.00E-02,  avg # of iterations =  4.0

     negative rho (up, down):  2.722E-02 2.748E-02

     Magnetic moment per site:
     atom:    1    charge:    9.3427    magn:    0.0390    constr:    0.0000
     atom:    2    charge:    9.3333    magn:    0.0373    constr:    0.0000

     total cpu time spent up to now is        9.8 secs

     total energy              =    -217.97460017 Ry
     Harris-Foulkes estimate   =    -218.17266064 Ry
     estimated scf accuracy    <       0.54032448 Ry

     total magnetization       =     1.00 Bohr mag/cell
     absolute magnetization    =     1.00 Bohr mag/cell

     iteration #  2     ecut=    50.00 Ry     beta=0.30
     Davidson diagonalization with overlap
     ethr =  2.35E-03,  avg # of iterations =  1.5

     negative rho (up, down):  1.238E-02 1.276E-02

     Magnetic moment per site:
     atom:    1    charge:    9.4649    magn:    0.0774    constr:    0.0000
     atom:    2    charge:    9.4562    magn:    0.0761    constr:    0.0000

     total cpu time spent up to now is       12.5 secs

     total energy              =    -217.96571821 Ry
     Harris-Foulkes estimate   =    -218.01244464 Ry
     estimated scf accuracy    <       0.11809880 Ry

     total magnetization       =     1.00 Bohr mag/cell
     absolute magnetization    =     1.01 Bohr mag/cell

     iteration #  3     ecut=    50.00 Ry     beta=0.30
     Davidson diagonalization with overlap
     ethr =  5.13E-04,  avg # of iterations =  2.0

     negative rho (up, down):  6.614E-03 6.965E-03

     Magnetic moment per site:
     atom:    1    charge:    9.4587    magn:    0.0855    constr:    0.0000
     atom:    2    charge:    9.4549    magn:    0.0851    constr:    0.0000

     total cpu time spent up to now is       15.8 secs

     total energy              =    -217.99265790 Ry
     Harris-Foulkes estimate   =    -217.99109819 Ry
     estimated scf accuracy    <       0.00963987 Ry

     total magnetization       =     1.00 Bohr mag/cell
     absolute magnetization    =     1.04 Bohr mag/cell

     iteration #  4     ecut=    50.00 Ry     beta=0.30
     Davidson diagonalization with overlap
     ethr =  4.19E-05,  avg # of iterations =  2.0

     negative rho (up, down):  2.578E-05 2.669E-05

     Magnetic moment per site:
     atom:    1    charge:    9.4777    magn:    0.0977    constr:    0.0000
     atom:    2    charge:    9.4747    magn:    0.0984    constr:    0.0000

     total cpu time spent up to now is       18.8 secs

     total energy              =    -217.99407703 Ry
     Harris-Foulkes estimate   =    -217.99342357 Ry
     estimated scf accuracy    <       0.00276206 Ry

     total magnetization       =     1.00 Bohr mag/cell
     absolute magnetization    =     1.05 Bohr mag/cell

     iteration #  5     ecut=    50.00 Ry     beta=0.30
     Davidson diagonalization with overlap
     ethr =  1.20E-05,  avg # of iterations =  2.5

     negative rho (up, down):  2.132E-05 2.202E-05

     Magnetic moment per site:
     atom:    1    charge:    9.4713    magn:    0.0954    constr:    0.0000
     atom:    2    charge:    9.4683    magn:    0.0962    constr:    0.0000

     total cpu time spent up to now is       21.8 secs

     total energy              =    -217.99465621 Ry
     Harris-Foulkes estimate   =    -217.99467521 Ry
     estimated scf accuracy    <       0.00036151 Ry

     total magnetization       =     1.00 Bohr mag/cell
     absolute magnetization    =     1.08 Bohr mag/cell

     iteration #  6     ecut=    50.00 Ry     beta=0.30
     Davidson diagonalization with overlap
     ethr =  1.57E-06,  avg # of iterations =  6.0

     Magnetic moment per site:
     atom:    1    charge:    9.4675    magn:    0.0930    constr:    0.0000
     atom:    2    charge:    9.4643    magn:    0.0938    constr:    0.0000

     total cpu time spent up to now is       25.6 secs

     total energy              =    -217.99467200 Ry
     Harris-Foulkes estimate   =    -217.99460401 Ry
     estimated scf accuracy    <       0.00003532 Ry

     total magnetization       =     1.00 Bohr mag/cell
     absolute magnetization    =     1.08 Bohr mag/cell

     iteration #  7     ecut=    50.00 Ry     beta=0.30
     Davidson diagonalization with overlap
     ethr =  1.54E-07,  avg # of iterations =  3.0

     Magnetic moment per site:
     atom:    1    charge:    9.4678    magn:    0.0925    constr:    0.0000
     atom:    2    charge:    9.4646    magn:    0.0933    constr:    0.0000

     total cpu time spent up to now is       30.0 secs

     total energy              =    -217.99467726 Ry
     Harris-Foulkes estimate   =    -217.99466915 Ry
     estimated scf accuracy    <       0.00000878 Ry

     total magnetization       =     1.00 Bohr mag/cell
     absolute magnetization    =     1.09 Bohr mag/cell

     iteration #  8     ecut=    50.00 Ry     beta=0.30
     Davidson diagonalization with overlap
     ethr =  3.82E-08,  avg # of iterations =  2.0

     Magnetic moment per site:
     atom:    1    charge:    9.4679    magn:    0.0923    constr:    0.0000
     atom:    2    charge:    9.4647    magn:    0.0931    constr:    0.0000

     total cpu time spent up to now is       33.3 secs

     total energy              =    -217.99466823 Ry
     Harris-Foulkes estimate   =    -217.99467664 Ry
     estimated scf accuracy    <       0.00000145 Ry

     total magnetization       =     1.00 Bohr mag/cell
     absolute magnetization    =     1.09 Bohr mag/cell

     iteration #  9     ecut=    50.00 Ry     beta=0.30
     Davidson diagonalization with overlap
     ethr =  6.30E-09,  avg # of iterations =  2.5

     Magnetic moment per site:
     atom:    1    charge:    9.4680    magn:    0.0922    constr:    0.0000
     atom:    2    charge:    9.4649    magn:    0.0930    constr:    0.0000

     total cpu time spent up to now is       36.5 secs

     total energy              =    -217.99467492 Ry
     Harris-Foulkes estimate   =    -217.99467566 Ry
     estimated scf accuracy    <       0.00000024 Ry

     total magnetization       =     1.00 Bohr mag/cell
     absolute magnetization    =     1.09 Bohr mag/cell

     iteration # 10     ecut=    50.00 Ry     beta=0.30
     Davidson diagonalization with overlap
     ethr =  1.06E-09,  avg # of iterations =  2.5
     
     Adding image charge field due to neutral metal slab at origin in XY plane.
     Including monopole and dipole terms.
     Quadrupole not implemented yet.
     System should not overlap with cell edges.
     

     reference position (x0):         9.44863066    9.44863066    6.14160993 bohr
     Total charge   1.0000
     Total dipole moment  -0.0004  -0.0004  -0.2534 au (Ha),  -0.0010  -0.0009  -0.6442 Debye

     Debug on write surface field to cube file.
       I         D           A         Val      Target            Str
       1 0.109E+01   0.103E+01   0.621E-01   0.000E+00   0.000000E+00
     Image interaction energy: -0.847E-01 Change:  0.160E-03 Tolerance:  0.100E-04

     Magnetic moment per site:
     atom:    1    charge:    9.4680    magn:    0.0922    constr:    0.0000
     atom:    2    charge:    9.4649    magn:    0.0930    constr:    0.0000

     total cpu time spent up to now is       41.4 secs

     total energy              =    -217.99467520 Ry
     Harris-Foulkes estimate   =    -217.99467711 Ry
     estimated scf accuracy    <       0.00000007 Ry

     total magnetization       =     1.00 Bohr mag/cell
     absolute magnetization    =     1.09 Bohr mag/cell

     iteration # 11     ecut=    50.00 Ry     beta=0.30
     Davidson diagonalization with overlap
     ethr =  3.20E-10,  avg # of iterations =  1.0
     
     Adding image charge field due to neutral metal slab at origin in XY plane.
     Including monopole and dipole terms.
     Quadrupole not implemented yet.
     System should not overlap with cell edges.
     

     reference position (x0):         9.44863066    9.44863066    6.14160993 bohr
     Total charge   1.0000
     Total dipole moment  -0.0004  -0.0004  -0.2534 au (Ha),  -0.0010  -0.0009  -0.6442 Debye

     Debug on write surface field to cube file.
       I         D           A         Val      Target            Str
       1 0.109E+01   0.103E+01   0.621E-01   0.000E+00   0.000000E+00
     Image interaction energy: -0.847E-01 Change:  0.206E-08 Tolerance:  0.100E-04
     
     Adding image charge field due to neutral metal slab at origin in XY plane.
     Including monopole and dipole terms.
     Quadrupole not implemented yet.
     System should not overlap with cell edges.
     

     reference position (x0):         9.44863066    9.44863066    6.14160993 bohr
     Total charge   1.0000
     Total dipole moment  -0.0004  -0.0004  -0.2534 au (Ha),  -0.0010  -0.0009  -0.6442 Debye

     Debug on write surface field to cube file.

     Magnetic moment per site:
     atom:    1    charge:    9.4680    magn:    0.0923    constr:    0.0000
     atom:    2    charge:    9.4648    magn:    0.0931    constr:    0.0000

     total cpu time spent up to now is       46.4 secs

     End of self-consistent calculation

 ------ SPIN UP ------------


          k = 0.0000 0.0000 0.0000 ( 34896 PWs)   bands (ev):

   -14.3569   -13.6450   -13.6450   -12.8754   -12.8712   -12.6425   -12.6257   -12.4098
   -12.4098   -12.3634   -10.4166    -6.5458    -3.7957    -2.9352
     occupation numbers 
     1.0000   1.0000   1.0000   1.0000   1.0000   1.0000   1.0000   1.0000
     1.0000   1.0000   1.0000   1.0000   0.0000   0.0000

 ------ SPIN DOWN ----------


          k = 0.0000 0.0000 0.0000 ( 34896 PWs)   bands (ev):

   -14.2245   -13.5356   -13.5356   -12.7977   -12.7934   -12.5633   -12.5465   -12.2554
   -12.2554   -12.1763   -10.1721    -5.6230    -3.4428    -3.4428
     occupation numbers 
     1.0000   1.0000   1.0000   1.0000   1.0000   1.0000   1.0000   1.0000
     1.0000   1.0000   1.0000   0.0000   0.0000   0.0000

     highest occupied level (ev):    -6.5458
     
     Adding image charge field due to neutral metal slab at origin in XY plane.
     Including monopole and dipole terms.
     Quadrupole not implemented yet.
     System should not overlap with cell edges.
     

     reference position (x0):         9.44863066    9.44863066    6.14160993 bohr
     Total charge   1.0000
     Total dipole moment  -0.0004  -0.0004  -0.2534 au (Ha),  -0.0010  -0.0009  -0.6442 Debye

     Debug on write surface field to cube file.
       I         D           A         Val      Target            Str
       1 0.109E+01   0.103E+01   0.621E-01   0.000E+00   0.000000E+00
     Image interaction energy: -0.847E-01 Change:  0.206E-08 Tolerance:  0.100E-04

!    total energy              =    -217.99466213 Ry
     Harris-Foulkes estimate   =    -217.99467711 Ry
     estimated scf accuracy    <       0.00000007 Ry

     The total energy is the sum of the following terms:

     one-electron contribution =    -399.99969517 Ry
     hartree contribution      =     209.58906825 Ry
     xc contribution           =     -32.48638652 Ry
     ewald contribution        =       4.90223735 Ry
     CDFT correction           =      -0.00000000 Ry
     scf correction            =       0.00011397 Ry

     total magnetization       =     1.00 Bohr mag/cell
     absolute magnetization    =     1.09 Bohr mag/cell

     convergence has been achieved in  11 iterations

     Writing output data file left.save

     init_run     :      5.34s CPU      6.13s WALL (       1 calls)
     electrons    :     38.11s CPU     41.90s WALL (       1 calls)

     Called by init_run:
     wfcinit      :      1.06s CPU      1.26s WALL (       1 calls)
     potinit      :      3.67s CPU      4.14s WALL (       1 calls)

     Called by electrons:
     c_bands      :     15.76s CPU     17.28s WALL (      11 calls)
     sum_band     :      4.26s CPU      4.87s WALL (      11 calls)
     v_of_rho     :     10.51s CPU     11.63s WALL (      11 calls)
     v_h          :      0.35s CPU      0.38s WALL (      11 calls)
     v_xc         :     10.16s CPU     11.25s WALL (      11 calls)
     mix_rho      :      1.47s CPU      1.67s WALL (      11 calls)

     Called by c_bands:
     init_us_2    :      0.36s CPU      0.39s WALL (      46 calls)
     regterg      :     15.03s CPU     16.46s WALL (      22 calls)

     Called by sum_band:

     Called by *egterg:
     h_psi        :     14.60s CPU     16.12s WALL (      82 calls)
     g_psi        :      0.06s CPU      0.06s WALL (      58 calls)
     rdiaghg      :      0.03s CPU      0.04s WALL (      80 calls)
     regterg:over :      0.48s CPU      0.51s WALL (      58 calls)
     regterg:upda :      0.29s CPU      0.31s WALL (      58 calls)
     regterg:last :      0.12s CPU      0.13s WALL (      22 calls)

     Called by h_psi:
     h_psi:vloc   :     13.82s CPU     15.26s WALL (      82 calls)
     h_psi:vnl    :      0.72s CPU      0.79s WALL (      82 calls)
     add_vuspsi   :      0.32s CPU      0.35s WALL (      82 calls)

     General routines
     calbec       :      0.40s CPU      0.44s WALL (      82 calls)
     fft          :      6.79s CPU      7.57s WALL (     292 calls)
     fftw         :     14.05s CPU     15.72s WALL (    1036 calls)

     Parallel routines
     fft_scatter  :     10.88s CPU     12.07s WALL (    1328 calls)

     PWSCF        :    43.65s CPU        48.36s WALL


   This run was terminated on:   8:52:11  10May2016            

=------------------------------------------------------------------------------=
   JOB DONE.
=------------------------------------------------------------------------------=
