
     Program PWSCF v.5.1.1 starts on 10May2016 at 14:23:23 

     This program is part of the open-source Quantum ESPRESSO suite
     for quantum simulation of materials; please cite
         "P. Giannozzi et al., J. Phys.:Condens. Matter 21 395502 (2009);
          URL http://www.quantum-espresso.org", 
     in publications or presentations arising from this work. More details at
     http://www.quantum-espresso.org/quote

     Parallel version (MPI), running on     4 processors
     R & G space division:  proc/nbgrp/npool/nimage =       4
     Waiting for input...
     Reading input from standard input
 Reading EPCDFT CARD. Printing based upon belief that input should be reproducable from output.
     Reading   1 constraint(s); tolerance:  100.000000 max change in field 0.01
     epcdft_update_intrvl: 100
     epcdft with surface: T
          constraint           type   A   A   D   D      T      L
                   1  delta_charge    1   1   2   2 0.0000 0.0000

     Current dimensions of program PWSCF are:
     Max number of different atomic species (ntypx) = 10
     Max number of k-points (npk) =  40000
     Max angular momentum in pseudopotentials (lmaxx) =  3
               file Zn.pbe-mt_fhi.UPF: wavefunction(s)  4p 4f renormalized

     gamma-point specific algorithms are used
     Message from routine setup:
     the system is metallic, specify occupations

     Subspace diagonalization in iterative solution of the eigenvalue problem:
     a serial algorithm will be used


     Parallelization info
     --------------------
     sticks:   dense  smooth     PW     G-vecs:    dense   smooth      PW
     Min        2047    2047    512               139165   139165   17446
     Max        2052    2052    514               139168   139168   17450
     Sum        8197    8197   2053               556667   556667   69791
     Tot        4099    4099   1027

     Generating pointlists ...
     new r_m :   0.0687 (alat units)  1.5590 (a.u.) for type    1


     bravais-lattice index     =            1
     lattice parameter (alat)  =      22.6767  a.u.
     unit-cell volume          =   11661.1222 (a.u.)^3
     number of atoms/cell      =            2
     number of atomic types    =            1
     number of electrons       =        23.00 (up:  12.00, down:  11.00)
     number of Kohn-Sham states=           14
     kinetic-energy cutoff     =      50.0000  Ry
     charge density cutoff     =     200.0000  Ry
     convergence threshold     =      1.0E-07
     mixing beta               =       0.3000
     number of iterations used =            8  plain     mixing
     Exchange-correlation      = PBE ( 1  4  3  4 0 0)

     celldm(1)=  22.676714  celldm(2)=   0.000000  celldm(3)=   0.000000
     celldm(4)=   0.000000  celldm(5)=   0.000000  celldm(6)=   0.000000

     crystal axes: (cart. coord. in units of alat)
               a(1) = (   1.000000   0.000000   0.000000 )  
               a(2) = (   0.000000   1.000000   0.000000 )  
               a(3) = (   0.000000   0.000000   1.000000 )  

     reciprocal axes: (cart. coord. in units 2 pi/alat)
               b(1) = (  1.000000  0.000000  0.000000 )  
               b(2) = (  0.000000  1.000000  0.000000 )  
               b(3) = (  0.000000  0.000000  1.000000 )  


     PseudoPot. # 1 for Zn read from file:
     ../../pseudo/Zn.pbe-mt_fhi.UPF
     MD5 check sum: 5596c9f2b89b9f7367257e7ea958b26e
     Pseudo is Norm-conserving, Zval = 12.0
     Generated using FHI98PP, converted with fhi2upf.x v.5.0.2
     Using radial grid of  527 points,  3 beta functions with: 
                l(1) =   1
                l(2) =   2
                l(3) =   3

     atomic species   valence    mass     pseudopotential
        Zn            12.00    65.39000     Zn( 1.00)

     Starting magnetic structure 
     atomic species   magnetization
        Zn           0.000

     No symmetry found


                                    s                        frac. trans.

      isym =  1     identity                                     

 cryst.   s( 1) = (     1          0          0      )
                  (     0          1          0      )
                  (     0          0          1      )

 cart.    s( 1) = (  1.0000000  0.0000000  0.0000000 )
                  (  0.0000000  1.0000000  0.0000000 )
                  (  0.0000000  0.0000000  1.0000000 )


     point group C_1 (1)    
     there are  1 classes
     the character table:

       E    
A      1.00

     the symmetry operations in each class:
     E        1

   Cartesian axes

     site n.     atom                  positions (alat units)
         1           Zn  tau(   1) = (   0.4166667   0.4166667   0.3750000  )
         2           Zn  tau(   2) = (   0.4166667   0.4166667   0.2083333  )

   Crystallographic axes

     site n.     atom                  positions (cryst. coord.)
         1           Zn  tau(   1) = (  0.4166667  0.4166667  0.3750000  )
         2           Zn  tau(   2) = (  0.4166667  0.4166667  0.2083333  )

     number of k points=     2
                       cart. coord. in units 2pi/alat
        k(    1) = (   0.0000000   0.0000000   0.0000000), wk =   1.0000000
        k(    2) = (   0.0000000   0.0000000   0.0000000), wk =   1.0000000

                       cryst. coord.
        k(    1) = (   0.0000000   0.0000000   0.0000000), wk =   1.0000000
        k(    2) = (   0.0000000   0.0000000   0.0000000), wk =   1.0000000

     Dense  grid:   278334 G-vectors     FFT dimensions: ( 108, 108, 108)

     Largest allocated arrays     est. size (Mb)     dimensions
        Kohn-Sham Wavefunctions         1.86 Mb     (    8725,   14)
        NL pseudopotentials             3.99 Mb     (    8725,   30)
        Each V/rho on FFT grid          9.61 Mb     (  314928,   2)
        Each G-vector array             0.53 Mb     (   69584)
        G-vector shells                 0.02 Mb     (    2154)
     Largest temporary arrays     est. size (Mb)     dimensions
        Auxiliary wavefunctions         3.73 Mb     (    8725,   56)
        Each subspace H/S matrix        0.02 Mb     (      56,   56)
        Each <psi_i|beta_j> matrix      0.00 Mb     (      30,   14)
        Arrays for rho mixing          38.44 Mb     (  314928,    8)

     Initial potential from superposition of free atoms
     Check: negative starting charge=(component1):   -0.041678
     Check: negative starting charge=(component2):   -0.041678

     starting charge   23.99975, renormalised to   23.00000

     negative rho (up, down):  3.994E-02 3.994E-02
     
     Adding image charge field due to neutral metal slab at origin in XY plane.
     Including monopole and dipole terms.
     Quadrupole not implemented yet.
     System should not overlap with cell edges.
     

     reference position (x0):         9.44863066    9.44863066    6.61404147 bohr
     Total charge   1.0000
     Total dipole moment   0.0004   0.0004  -0.0000 au (Ha),   0.0010   0.0010  -0.0000 Debye


     First surface image interaction energy:-0.156E+00[Ry]


     reference position (x0):         9.44863066    9.44863066    6.61404147 bohr
     Total charge   1.0000
     Total dipole moment   0.0004   0.0004  -0.0000 au (Ha),   0.0010   0.0010  -0.0000 Debye

     Starting wfc are   32 randomized atomic wfcs

     total cpu time spent up to now is        3.6 secs

     per-process dynamical memory:    78.3 Mb

     Self-consistent Calculation

     iteration #  1     ecut=    50.00 Ry     beta=0.30
     Davidson diagonalization with overlap
     ethr =  1.00E-02,  avg # of iterations =  4.0

     negative rho (up, down):  2.725E-02 2.751E-02

     Magnetic moment per site:
     atom:    1    charge:    9.3454    magn:    0.0395    constr:    0.0000
     atom:    2    charge:    9.3300    magn:    0.0367    constr:    0.0000

     total cpu time spent up to now is        7.2 secs

     total energy              =    -217.96881862 Ry
     Harris-Foulkes estimate   =    -218.17777469 Ry
     estimated scf accuracy    <       0.54801928 Ry

     total magnetization       =     1.00 Bohr mag/cell
     absolute magnetization    =     1.00 Bohr mag/cell

     iteration #  2     ecut=    50.00 Ry     beta=0.30
     Davidson diagonalization with overlap
     ethr =  2.38E-03,  avg # of iterations =  1.5

     negative rho (up, down):  1.244E-02 1.282E-02

     Magnetic moment per site:
     atom:    1    charge:    9.4666    magn:    0.0777    constr:    0.0000
     atom:    2    charge:    9.4522    magn:    0.0754    constr:    0.0000

     total cpu time spent up to now is       10.2 secs

     total energy              =    -217.96326905 Ry
     Harris-Foulkes estimate   =    -218.01291660 Ry
     estimated scf accuracy    <       0.11862614 Ry

     total magnetization       =     1.00 Bohr mag/cell
     absolute magnetization    =     1.01 Bohr mag/cell

     iteration #  3     ecut=    50.00 Ry     beta=0.30
     Davidson diagonalization with overlap
     ethr =  5.16E-04,  avg # of iterations =  2.0

     negative rho (up, down):  6.508E-03 6.862E-03

     Magnetic moment per site:
     atom:    1    charge:    9.4591    magn:    0.0858    constr:    0.0000
     atom:    2    charge:    9.4537    magn:    0.0851    constr:    0.0000

     total cpu time spent up to now is       13.3 secs

     total energy              =    -217.99148675 Ry
     Harris-Foulkes estimate   =    -217.98987635 Ry
     estimated scf accuracy    <       0.00976246 Ry

     total magnetization       =     1.00 Bohr mag/cell
     absolute magnetization    =     1.04 Bohr mag/cell

     iteration #  4     ecut=    50.00 Ry     beta=0.30
     Davidson diagonalization with overlap
     ethr =  4.24E-05,  avg # of iterations =  2.0

     negative rho (up, down):  3.170E-05 3.304E-05

     Magnetic moment per site:
     atom:    1    charge:    9.4783    magn:    0.0976    constr:    0.0000
     atom:    2    charge:    9.4741    magn:    0.0986    constr:    0.0000

     total cpu time spent up to now is       16.2 secs

     total energy              =    -217.99222047 Ry
     Harris-Foulkes estimate   =    -217.99233486 Ry
     estimated scf accuracy    <       0.00276343 Ry

     total magnetization       =     1.00 Bohr mag/cell
     absolute magnetization    =     1.05 Bohr mag/cell

     iteration #  5     ecut=    50.00 Ry     beta=0.30
     Davidson diagonalization with overlap
     ethr =  1.20E-05,  avg # of iterations =  2.5

     negative rho (up, down):  2.140E-05 2.218E-05

     Magnetic moment per site:
     atom:    1    charge:    9.4714    magn:    0.0952    constr:    0.0000
     atom:    2    charge:    9.4672    magn:    0.0963    constr:    0.0000

     total cpu time spent up to now is       19.1 secs

     total energy              =    -217.99321882 Ry
     Harris-Foulkes estimate   =    -217.99303257 Ry
     estimated scf accuracy    <       0.00043687 Ry

     total magnetization       =     1.00 Bohr mag/cell
     absolute magnetization    =     1.08 Bohr mag/cell

     iteration #  6     ecut=    50.00 Ry     beta=0.30
     Davidson diagonalization with overlap
     ethr =  1.90E-06,  avg # of iterations =  6.0

     Magnetic moment per site:
     atom:    1    charge:    9.4685    magn:    0.0932    constr:    0.0000
     atom:    2    charge:    9.4641    magn:    0.0944    constr:    0.0000

     total cpu time spent up to now is       22.3 secs

     total energy              =    -217.99315516 Ry
     Harris-Foulkes estimate   =    -217.99301125 Ry
     estimated scf accuracy    <       0.00003285 Ry

     total magnetization       =     1.00 Bohr mag/cell
     absolute magnetization    =     1.08 Bohr mag/cell

     iteration #  7     ecut=    50.00 Ry     beta=0.30
     Davidson diagonalization with overlap
     ethr =  1.43E-07,  avg # of iterations =  3.0

     Magnetic moment per site:
     atom:    1    charge:    9.4679    magn:    0.0925    constr:    0.0000
     atom:    2    charge:    9.4635    magn:    0.0937    constr:    0.0000

     total cpu time spent up to now is       25.5 secs

     total energy              =    -217.99312520 Ry
     Harris-Foulkes estimate   =    -217.99310201 Ry
     estimated scf accuracy    <       0.00000494 Ry

     total magnetization       =     1.00 Bohr mag/cell
     absolute magnetization    =     1.09 Bohr mag/cell

     iteration #  8     ecut=    50.00 Ry     beta=0.30
     Davidson diagonalization with overlap
     ethr =  2.15E-08,  avg # of iterations =  2.0

     Magnetic moment per site:
     atom:    1    charge:    9.4683    magn:    0.0922    constr:    0.0000
     atom:    2    charge:    9.4638    magn:    0.0934    constr:    0.0000

     total cpu time spent up to now is       28.3 secs

     total energy              =    -217.99309508 Ry
     Harris-Foulkes estimate   =    -217.99313070 Ry
     estimated scf accuracy    <       0.00000267 Ry

     total magnetization       =     1.00 Bohr mag/cell
     absolute magnetization    =     1.09 Bohr mag/cell

     iteration #  9     ecut=    50.00 Ry     beta=0.30
     Davidson diagonalization with overlap
     ethr =  1.16E-08,  avg # of iterations =  2.0

     Magnetic moment per site:
     atom:    1    charge:    9.4682    magn:    0.0921    constr:    0.0000
     atom:    2    charge:    9.4638    magn:    0.0933    constr:    0.0000

     total cpu time spent up to now is       31.4 secs

     total energy              =    -217.99311717 Ry
     Harris-Foulkes estimate   =    -217.99312104 Ry
     estimated scf accuracy    <       0.00000019 Ry

     total magnetization       =     1.00 Bohr mag/cell
     absolute magnetization    =     1.09 Bohr mag/cell

     iteration # 10     ecut=    50.00 Ry     beta=0.30
     Davidson diagonalization with overlap
     ethr =  8.13E-10,  avg # of iterations =  2.5

     Magnetic moment per site:
     atom:    1    charge:    9.4683    magn:    0.0921    constr:    0.0000
     atom:    2    charge:    9.4639    magn:    0.0933    constr:    0.0000

     total cpu time spent up to now is       34.4 secs

     total energy              =    -217.99311723 Ry
     Harris-Foulkes estimate   =    -217.99312367 Ry
     estimated scf accuracy    <       0.00000010 Ry

     total magnetization       =     1.00 Bohr mag/cell
     absolute magnetization    =     1.09 Bohr mag/cell

     iteration # 11     ecut=    50.00 Ry     beta=0.30
     Davidson diagonalization with overlap
     ethr =  4.37E-10,  avg # of iterations =  2.0

     reference position (x0):         9.44863066    9.44863066    6.61404147 bohr
     Total charge   1.0000
     Total dipole moment  -0.0004  -0.0004  -0.4452 au (Ha),  -0.0010  -0.0010  -1.1316 Debye

       I         D           A         Val      Target            Str
       1 0.111E+01   0.101E+01   0.108E+00   0.000E+00   0.000000E+00
     Image interaction energy: -0.156E+00 [Ry] Change:  0.697E-04 [Ry] Tolerance:  0.100E-04 [Ry]

     Magnetic moment per site:
     atom:    1    charge:    9.4683    magn:    0.0921    constr:    0.0000
     atom:    2    charge:    9.4639    magn:    0.0933    constr:    0.0000

     total cpu time spent up to now is       37.7 secs

     total energy              =    -217.99312346 Ry
     Harris-Foulkes estimate   =    -217.99312074 Ry
     estimated scf accuracy    <          3.0E-09 Ry

     total magnetization       =     1.00 Bohr mag/cell
     absolute magnetization    =     1.09 Bohr mag/cell

     iteration # 12     ecut=    50.00 Ry     beta=0.30
     Davidson diagonalization with overlap
     ethr =  1.30E-11,  avg # of iterations =  2.0

     reference position (x0):         9.44863066    9.44863066    6.61404147 bohr
     Total charge   1.0000
     Total dipole moment  -0.0004  -0.0004  -0.4452 au (Ha),  -0.0010  -0.0010  -1.1315 Debye

       I         D           A         Val      Target            Str
       1 0.111E+01   0.101E+01   0.108E+00   0.000E+00   0.000000E+00
     Image interaction energy: -0.156E+00 [Ry] Change:  0.353E-07 [Ry] Tolerance:  0.100E-04 [Ry]

     reference position (x0):         9.44863066    9.44863066    6.61404147 bohr
     Total charge   1.0000
     Total dipole moment  -0.0004  -0.0004  -0.4452 au (Ha),  -0.0010  -0.0010  -1.1315 Debye


     Magnetic moment per site:
     atom:    1    charge:    9.4683    magn:    0.0922    constr:    0.0000
     atom:    2    charge:    9.4639    magn:    0.0934    constr:    0.0000

     total cpu time spent up to now is       40.3 secs

     End of self-consistent calculation

 ------ SPIN UP ------------


          k = 0.0000 0.0000 0.0000 ( 34896 PWs)   bands (ev):

   -13.3913   -12.6782   -12.6782   -11.9135   -11.9093   -11.6759   -11.6595   -11.4415
   -11.4415   -11.3995    -9.4581    -5.5688    -2.8479    -1.9318
     occupation numbers 
     1.0000   1.0000   1.0000   1.0000   1.0000   1.0000   1.0000   1.0000
     1.0000   1.0000   1.0000   1.0000   0.0000   0.0000

 ------ SPIN DOWN ----------


          k = 0.0000 0.0000 0.0000 ( 34896 PWs)   bands (ev):

   -13.2578   -12.5685   -12.5685   -11.8367   -11.8325   -11.5960   -11.5798   -11.2872
   -11.2872   -11.2124    -9.2127    -4.6453    -2.4949    -2.4949
     occupation numbers 
     1.0000   1.0000   1.0000   1.0000   1.0000   1.0000   1.0000   1.0000
     1.0000   1.0000   1.0000   0.0000   0.0000   0.0000

     highest occupied level (ev):    -5.5688

     reference position (x0):         9.44863066    9.44863066    6.61404147 bohr
     Total charge   1.0000
     Total dipole moment  -0.0004  -0.0004  -0.4452 au (Ha),  -0.0010  -0.0010  -1.1315 Debye

       I         D           A         Val      Target            Str
       1 0.111E+01   0.101E+01   0.108E+00   0.000E+00   0.000000E+00
     Image interaction energy: -0.156E+00 [Ry] Change:  0.353E-07 [Ry] Tolerance:  0.100E-04 [Ry]

!    total energy              =    -217.99309509 Ry
     Harris-Foulkes estimate   =    -217.99312074 Ry
     estimated scf accuracy    <          3.1E-09 Ry

     The total energy is the sum of the following terms:

     one-electron contribution =    -400.00040558 Ry
     hartree contribution      =     209.59166660 Ry
     xc contribution           =     -32.48627340 Ry
     ewald contribution        =       4.90223735 Ry
     CDFT correction           =      -0.00000000 Ry
     scf correction            =      -0.00032006 Ry

     total magnetization       =     1.00 Bohr mag/cell
     absolute magnetization    =     1.09 Bohr mag/cell

     convergence has been achieved in  12 iterations

     Writing output data file left.save

     init_run     :      3.44s CPU      3.57s WALL (       1 calls)
     electrons    :     34.88s CPU     37.31s WALL (       1 calls)

     Called by init_run:
     wfcinit      :      1.17s CPU      1.19s WALL (       1 calls)
     potinit      :      1.64s CPU      1.71s WALL (       1 calls)

     Called by electrons:
     c_bands      :     15.91s CPU     16.90s WALL (      12 calls)
     sum_band     :      4.50s CPU      4.79s WALL (      12 calls)
     v_of_rho     :     11.34s CPU     12.25s WALL (      12 calls)
     v_h          :      0.39s CPU      0.41s WALL (      12 calls)
     v_xc         :     10.95s CPU     11.84s WALL (      12 calls)
     mix_rho      :      1.62s CPU      1.71s WALL (      12 calls)

     Called by c_bands:
     init_us_2    :      0.41s CPU      0.42s WALL (      50 calls)
     regterg      :     15.17s CPU     16.07s WALL (      24 calls)

     Called by sum_band:

     Called by *egterg:
     h_psi        :     14.86s CPU     15.70s WALL (      89 calls)
     g_psi        :      0.07s CPU      0.07s WALL (      63 calls)
     rdiaghg      :      0.04s CPU      0.04s WALL (      87 calls)
     regterg:over :      0.45s CPU      0.48s WALL (      63 calls)
     regterg:upda :      0.31s CPU      0.33s WALL (      63 calls)
     regterg:last :      0.13s CPU      0.14s WALL (      24 calls)

     Called by h_psi:
     h_psi:vloc   :     14.06s CPU     14.87s WALL (      89 calls)
     h_psi:vnl    :      0.73s CPU      0.75s WALL (      89 calls)
     add_vuspsi   :      0.34s CPU      0.36s WALL (      89 calls)

     General routines
     calbec       :      0.38s CPU      0.40s WALL (      89 calls)
     fft          :      7.03s CPU      7.50s WALL (     313 calls)
     fftw         :     13.94s CPU     14.78s WALL (    1124 calls)

     Parallel routines
     fft_scatter  :      9.79s CPU     10.51s WALL (    1437 calls)

     PWSCF        :    38.54s CPU        41.14s WALL


   This run was terminated on:  14:24: 5  10May2016            

=------------------------------------------------------------------------------=
   JOB DONE.
=------------------------------------------------------------------------------=
