
     Program PWSCF v.5.1.1 starts on 10May2016 at  8:54:41 

     This program is part of the open-source Quantum ESPRESSO suite
     for quantum simulation of materials; please cite
         "P. Giannozzi et al., J. Phys.:Condens. Matter 21 395502 (2009);
          URL http://www.quantum-espresso.org", 
     in publications or presentations arising from this work. More details at
     http://www.quantum-espresso.org/quote

     Parallel version (MPI), running on     4 processors
     R & G space division:  proc/nbgrp/npool/nimage =       4
     Waiting for input...
     Reading input from standard input
 Reading EPCDFT CARD. Printing based upon belief that input should be reproducable from output.
     Reading   1 constraint(s); tolerance:  100.000000 max change in field 0.01
     epcdft_update_intrvl: 100
     epcdft with surface: T
          constraint           type   A   A   D   D      T      L
                   1  delta_charge    1   1   2   2 0.0000 0.0000

     Current dimensions of program PWSCF are:
     Max number of different atomic species (ntypx) = 10
     Max number of k-points (npk) =  40000
     Max angular momentum in pseudopotentials (lmaxx) =  3
               file Zn.pbe-mt_fhi.UPF: wavefunction(s)  4p 4f renormalized

     gamma-point specific algorithms are used
     Message from routine setup:
     the system is metallic, specify occupations

     Subspace diagonalization in iterative solution of the eigenvalue problem:
     a serial algorithm will be used


     Parallelization info
     --------------------
     sticks:   dense  smooth     PW     G-vecs:    dense   smooth      PW
     Min        2047    2047    512               139165   139165   17446
     Max        2052    2052    514               139168   139168   17450
     Sum        8197    8197   2053               556667   556667   69791
     Tot        4099    4099   1027

     Generating pointlists ...
     new r_m :   0.0688 (alat units)  1.5590 (a.u.) for type    1


     bravais-lattice index     =            1
     lattice parameter (alat)  =      22.6767  a.u.
     unit-cell volume          =   11661.1222 (a.u.)^3
     number of atoms/cell      =            2
     number of atomic types    =            1
     number of electrons       =        23.00 (up:  12.00, down:  11.00)
     number of Kohn-Sham states=           14
     kinetic-energy cutoff     =      50.0000  Ry
     charge density cutoff     =     200.0000  Ry
     convergence threshold     =      1.0E-07
     mixing beta               =       0.3000
     number of iterations used =            8  plain     mixing
     Exchange-correlation      = PBE ( 1  4  3  4 0 0)

     celldm(1)=  22.676714  celldm(2)=   0.000000  celldm(3)=   0.000000
     celldm(4)=   0.000000  celldm(5)=   0.000000  celldm(6)=   0.000000

     crystal axes: (cart. coord. in units of alat)
               a(1) = (   1.000000   0.000000   0.000000 )  
               a(2) = (   0.000000   1.000000   0.000000 )  
               a(3) = (   0.000000   0.000000   1.000000 )  

     reciprocal axes: (cart. coord. in units 2 pi/alat)
               b(1) = (  1.000000  0.000000  0.000000 )  
               b(2) = (  0.000000  1.000000  0.000000 )  
               b(3) = (  0.000000  0.000000  1.000000 )  


     PseudoPot. # 1 for Zn read from file:
     ../../pseudo/Zn.pbe-mt_fhi.UPF
     MD5 check sum: 5596c9f2b89b9f7367257e7ea958b26e
     Pseudo is Norm-conserving, Zval = 12.0
     Generated using FHI98PP, converted with fhi2upf.x v.5.0.2
     Using radial grid of  527 points,  3 beta functions with: 
                l(1) =   1
                l(2) =   2
                l(3) =   3

     atomic species   valence    mass     pseudopotential
        Zn            12.00    65.39000     Zn( 1.00)

     Starting magnetic structure 
     atomic species   magnetization
        Zn           0.000

     No symmetry found


                                    s                        frac. trans.

      isym =  1     identity                                     

 cryst.   s( 1) = (     1          0          0      )
                  (     0          1          0      )
                  (     0          0          1      )

 cart.    s( 1) = (  1.0000000  0.0000000  0.0000000 )
                  (  0.0000000  1.0000000  0.0000000 )
                  (  0.0000000  0.0000000  1.0000000 )


     point group C_1 (1)    
     there are  1 classes
     the character table:

       E    
A      1.00

     the symmetry operations in each class:
     E        1

   Cartesian axes

     site n.     atom                  positions (alat units)
         1           Zn  tau(   1) = (   0.4166667   0.4166667   0.5000000  )
         2           Zn  tau(   2) = (   0.4166667   0.4166667   0.3333333  )

   Crystallographic axes

     site n.     atom                  positions (cryst. coord.)
         1           Zn  tau(   1) = (  0.4166667  0.4166667  0.5000000  )
         2           Zn  tau(   2) = (  0.4166667  0.4166667  0.3333333  )

     number of k points=     2
                       cart. coord. in units 2pi/alat
        k(    1) = (   0.0000000   0.0000000   0.0000000), wk =   1.0000000
        k(    2) = (   0.0000000   0.0000000   0.0000000), wk =   1.0000000

                       cryst. coord.
        k(    1) = (   0.0000000   0.0000000   0.0000000), wk =   1.0000000
        k(    2) = (   0.0000000   0.0000000   0.0000000), wk =   1.0000000

     Dense  grid:   278334 G-vectors     FFT dimensions: ( 108, 108, 108)

     Largest allocated arrays     est. size (Mb)     dimensions
        Kohn-Sham Wavefunctions         1.86 Mb     (    8725,   14)
        NL pseudopotentials             3.99 Mb     (    8725,   30)
        Each V/rho on FFT grid          9.61 Mb     (  314928,   2)
        Each G-vector array             0.53 Mb     (   69584)
        G-vector shells                 0.02 Mb     (    2154)
     Largest temporary arrays     est. size (Mb)     dimensions
        Auxiliary wavefunctions         3.73 Mb     (    8725,   56)
        Each subspace H/S matrix        0.02 Mb     (      56,   56)
        Each <psi_i|beta_j> matrix      0.00 Mb     (      30,   14)
        Arrays for rho mixing          38.44 Mb     (  314928,    8)

     Initial potential from superposition of free atoms
     Check: negative starting charge=(component1):   -0.041597
     Check: negative starting charge=(component2):   -0.041597

     starting charge   23.99975, renormalised to   23.00000

     negative rho (up, down):  3.986E-02 3.986E-02
     
     Adding image charge field due to neutral metal slab at origin in XY plane.
     Including monopole and dipole terms.
     Quadrupole not implemented yet.
     System should not overlap with cell edges.
     

     reference position (x0):         9.44863066    9.44863066    9.44863066 bohr
     Total charge   1.0000
     Total dipole moment   0.0004   0.0004  -0.0002 au (Ha),   0.0010   0.0010  -0.0004 Debye

     Debug on write surface field to cube file.

     First surface image interaction energy:-0.535E-01

     
     Adding image charge field due to neutral metal slab at origin in XY plane.
     Including monopole and dipole terms.
     Quadrupole not implemented yet.
     System should not overlap with cell edges.
     

     reference position (x0):         9.44863066    9.44863066    9.44863066 bohr
     Total charge   1.0000
     Total dipole moment   0.0004   0.0004  -0.0002 au (Ha),   0.0010   0.0010  -0.0004 Debye

     Debug on write surface field to cube file.
     Starting wfc are   32 randomized atomic wfcs

     total cpu time spent up to now is        7.3 secs

     per-process dynamical memory:    78.3 Mb

     Self-consistent Calculation

     iteration #  1     ecut=    50.00 Ry     beta=0.30
     Davidson diagonalization with overlap
     ethr =  1.00E-02,  avg # of iterations =  4.0

     negative rho (up, down):  2.722E-02 2.746E-02

     Magnetic moment per site:
     atom:    1    charge:    9.3406    magn:    0.0385    constr:    0.0000
     atom:    2    charge:    9.3368    magn:    0.0378    constr:    0.0000

     total cpu time spent up to now is       10.8 secs

     total energy              =    -217.97769514 Ry
     Harris-Foulkes estimate   =    -218.17020925 Ry
     estimated scf accuracy    <       0.53542740 Ry

     total magnetization       =     1.00 Bohr mag/cell
     absolute magnetization    =     1.00 Bohr mag/cell

     iteration #  2     ecut=    50.00 Ry     beta=0.30
     Davidson diagonalization with overlap
     ethr =  2.33E-03,  avg # of iterations =  1.5

     negative rho (up, down):  1.237E-02 1.273E-02

     Magnetic moment per site:
     atom:    1    charge:    9.4634    magn:    0.0772    constr:    0.0000
     atom:    2    charge:    9.4602    magn:    0.0766    constr:    0.0000

     total cpu time spent up to now is       13.6 secs

     total energy              =    -217.96680735 Ry
     Harris-Foulkes estimate   =    -218.01260803 Ry
     estimated scf accuracy    <       0.11770373 Ry

     total magnetization       =     1.00 Bohr mag/cell
     absolute magnetization    =     1.01 Bohr mag/cell

     iteration #  3     ecut=    50.00 Ry     beta=0.30
     Davidson diagonalization with overlap
     ethr =  5.12E-04,  avg # of iterations =  2.0

     negative rho (up, down):  6.665E-03 6.995E-03

     Magnetic moment per site:
     atom:    1    charge:    9.4585    magn:    0.0854    constr:    0.0000
     atom:    2    charge:    9.4572    magn:    0.0852    constr:    0.0000

     total cpu time spent up to now is       16.8 secs

     total energy              =    -217.99288741 Ry
     Harris-Foulkes estimate   =    -217.99178767 Ry
     estimated scf accuracy    <       0.00960482 Ry

     total magnetization       =     1.00 Bohr mag/cell
     absolute magnetization    =     1.04 Bohr mag/cell

     iteration #  4     ecut=    50.00 Ry     beta=0.30
     Davidson diagonalization with overlap
     ethr =  4.18E-05,  avg # of iterations =  2.0

     negative rho (up, down):  2.427E-05 2.496E-05

     Magnetic moment per site:
     atom:    1    charge:    9.4775    magn:    0.0979    constr:    0.0000
     atom:    2    charge:    9.4766    magn:    0.0983    constr:    0.0000

     total cpu time spent up to now is       19.8 secs

     total energy              =    -217.99468231 Ry
     Harris-Foulkes estimate   =    -217.99386114 Ry
     estimated scf accuracy    <       0.00276146 Ry

     total magnetization       =     1.00 Bohr mag/cell
     absolute magnetization    =     1.05 Bohr mag/cell

     iteration #  5     ecut=    50.00 Ry     beta=0.30
     Davidson diagonalization with overlap
     ethr =  1.20E-05,  avg # of iterations =  2.5

     negative rho (up, down):  2.137E-05 2.195E-05

     Magnetic moment per site:
     atom:    1    charge:    9.4715    magn:    0.0958    constr:    0.0000
     atom:    2    charge:    9.4705    magn:    0.0962    constr:    0.0000

     total cpu time spent up to now is       22.8 secs

     total energy              =    -217.99508222 Ry
     Harris-Foulkes estimate   =    -217.99517918 Ry
     estimated scf accuracy    <       0.00033111 Ry

     total magnetization       =     1.00 Bohr mag/cell
     absolute magnetization    =     1.08 Bohr mag/cell

     iteration #  6     ecut=    50.00 Ry     beta=0.30
     Davidson diagonalization with overlap
     ethr =  1.44E-06,  avg # of iterations =  5.5

     Magnetic moment per site:
     atom:    1    charge:    9.4667    magn:    0.0930    constr:    0.0000
     atom:    2    charge:    9.4657    magn:    0.0934    constr:    0.0000

     total cpu time spent up to now is       26.1 secs

     total energy              =    -217.99513510 Ry
     Harris-Foulkes estimate   =    -217.99509271 Ry
     estimated scf accuracy    <       0.00003920 Ry

     total magnetization       =     1.00 Bohr mag/cell
     absolute magnetization    =     1.08 Bohr mag/cell

     iteration #  7     ecut=    50.00 Ry     beta=0.30
     Davidson diagonalization with overlap
     ethr =  1.70E-07,  avg # of iterations =  3.0

     Magnetic moment per site:
     atom:    1    charge:    9.4680    magn:    0.0926    constr:    0.0000
     atom:    2    charge:    9.4670    magn:    0.0931    constr:    0.0000

     total cpu time spent up to now is       29.5 secs

     total energy              =    -217.99514885 Ry
     Harris-Foulkes estimate   =    -217.99515613 Ry
     estimated scf accuracy    <       0.00001772 Ry

     total magnetization       =     1.00 Bohr mag/cell
     absolute magnetization    =     1.09 Bohr mag/cell

     iteration #  8     ecut=    50.00 Ry     beta=0.30
     Davidson diagonalization with overlap
     ethr =  7.70E-08,  avg # of iterations =  2.0

     Magnetic moment per site:
     atom:    1    charge:    9.4677    magn:    0.0925    constr:    0.0000
     atom:    2    charge:    9.4667    magn:    0.0929    constr:    0.0000

     total cpu time spent up to now is       33.2 secs

     total energy              =    -217.99515168 Ry
     Harris-Foulkes estimate   =    -217.99515275 Ry
     estimated scf accuracy    <       0.00000027 Ry

     total magnetization       =     1.00 Bohr mag/cell
     absolute magnetization    =     1.09 Bohr mag/cell

     iteration #  9     ecut=    50.00 Ry     beta=0.30
     Davidson diagonalization with overlap
     ethr =  1.16E-09,  avg # of iterations =  2.5

     Magnetic moment per site:
     atom:    1    charge:    9.4680    magn:    0.0925    constr:    0.0000
     atom:    2    charge:    9.4670    magn:    0.0929    constr:    0.0000

     total cpu time spent up to now is       36.5 secs

     total energy              =    -217.99515268 Ry
     Harris-Foulkes estimate   =    -217.99515363 Ry
     estimated scf accuracy    <       0.00000067 Ry

     total magnetization       =     1.00 Bohr mag/cell
     absolute magnetization    =     1.09 Bohr mag/cell

     iteration # 10     ecut=    50.00 Ry     beta=0.30
     Davidson diagonalization with overlap
     ethr =  1.16E-09,  avg # of iterations =  3.0
     
     Adding image charge field due to neutral metal slab at origin in XY plane.
     Including monopole and dipole terms.
     Quadrupole not implemented yet.
     System should not overlap with cell edges.
     

     reference position (x0):         9.44863066    9.44863066    9.44863066 bohr
     Total charge   1.0000
     Total dipole moment  -0.0004  -0.0004  -0.1121 au (Ha),  -0.0010  -0.0010  -0.2849 Debye

     Debug on write surface field to cube file.
       I         D           A         Val      Target            Str
       1 0.108E+01   0.105E+01   0.269E-01   0.000E+00   0.000000E+00
     Image interaction energy: -0.537E-01 Change: -0.201E-03 Tolerance:  0.100E-04

     Magnetic moment per site:
     atom:    1    charge:    9.4680    magn:    0.0925    constr:    0.0000
     atom:    2    charge:    9.4670    magn:    0.0929    constr:    0.0000

     total cpu time spent up to now is       41.4 secs

     total energy              =    -217.99515367 Ry
     Harris-Foulkes estimate   =    -217.99515340 Ry
     estimated scf accuracy    <       0.00000007 Ry

     total magnetization       =     1.00 Bohr mag/cell
     absolute magnetization    =     1.09 Bohr mag/cell

     iteration # 11     ecut=    50.00 Ry     beta=0.30
     Davidson diagonalization with overlap
     ethr =  3.10E-10,  avg # of iterations =  1.0
     
     Adding image charge field due to neutral metal slab at origin in XY plane.
     Including monopole and dipole terms.
     Quadrupole not implemented yet.
     System should not overlap with cell edges.
     

     reference position (x0):         9.44863066    9.44863066    9.44863066 bohr
     Total charge   1.0000
     Total dipole moment  -0.0004  -0.0004  -0.1121 au (Ha),  -0.0010  -0.0010  -0.2849 Debye

     Debug on write surface field to cube file.
       I         D           A         Val      Target            Str
       1 0.108E+01   0.105E+01   0.269E-01   0.000E+00   0.000000E+00
     Image interaction energy: -0.537E-01 Change:  0.207E-08 Tolerance:  0.100E-04
     
     Adding image charge field due to neutral metal slab at origin in XY plane.
     Including monopole and dipole terms.
     Quadrupole not implemented yet.
     System should not overlap with cell edges.
     

     reference position (x0):         9.44863066    9.44863066    9.44863066 bohr
     Total charge   1.0000
     Total dipole moment  -0.0004  -0.0004  -0.1121 au (Ha),  -0.0010  -0.0010  -0.2849 Debye

     Debug on write surface field to cube file.

     Magnetic moment per site:
     atom:    1    charge:    9.4678    magn:    0.0925    constr:    0.0000
     atom:    2    charge:    9.4669    magn:    0.0929    constr:    0.0000

     total cpu time spent up to now is       46.4 secs

     End of self-consistent calculation

 ------ SPIN UP ------------


          k = 0.0000 0.0000 0.0000 ( 34896 PWs)   bands (ev):

   -14.7590   -14.0485   -14.0485   -13.2748   -13.2708   -13.0444   -13.0272   -12.8149
   -12.8149   -12.7641   -10.8114    -6.9632    -4.1800    -3.3497
     occupation numbers 
     1.0000   1.0000   1.0000   1.0000   1.0000   1.0000   1.0000   1.0000
     1.0000   1.0000   1.0000   1.0000   0.0000   0.0000

 ------ SPIN DOWN ----------


          k = 0.0000 0.0000 0.0000 ( 34896 PWs)   bands (ev):

   -14.6275   -13.9393   -13.9393   -13.1965   -13.1923   -12.9652   -12.9482   -12.6604
   -12.6604   -12.5772   -10.5667    -6.0385    -3.8266    -3.8266
     occupation numbers 
     1.0000   1.0000   1.0000   1.0000   1.0000   1.0000   1.0000   1.0000
     1.0000   1.0000   1.0000   0.0000   0.0000   0.0000

     highest occupied level (ev):    -6.9632
     
     Adding image charge field due to neutral metal slab at origin in XY plane.
     Including monopole and dipole terms.
     Quadrupole not implemented yet.
     System should not overlap with cell edges.
     

     reference position (x0):         9.44863066    9.44863066    9.44863066 bohr
     Total charge   1.0000
     Total dipole moment  -0.0004  -0.0004  -0.1121 au (Ha),  -0.0010  -0.0010  -0.2849 Debye

     Debug on write surface field to cube file.
       I         D           A         Val      Target            Str
       1 0.108E+01   0.105E+01   0.269E-01   0.000E+00   0.000000E+00
     Image interaction energy: -0.537E-01 Change:  0.207E-08 Tolerance:  0.100E-04

!    total energy              =    -217.99516081 Ry
     Harris-Foulkes estimate   =    -217.99515340 Ry
     estimated scf accuracy    <       0.00000007 Ry

     The total energy is the sum of the following terms:

     one-electron contribution =    -400.00154517 Ry
     hartree contribution      =     209.59568954 Ry
     xc contribution           =     -32.48742086 Ry
     ewald contribution        =       4.90223735 Ry
     CDFT correction           =      -0.00000000 Ry
     scf correction            =      -0.00412167 Ry

     total magnetization       =     1.00 Bohr mag/cell
     absolute magnetization    =     1.09 Bohr mag/cell

     convergence has been achieved in  11 iterations

     Writing output data file left.save

     init_run     :      6.43s CPU      7.21s WALL (       1 calls)
     electrons    :     38.36s CPU     40.92s WALL (       1 calls)

     Called by init_run:
     wfcinit      :      1.26s CPU      1.32s WALL (       1 calls)
     potinit      :      4.49s CPU      5.18s WALL (       1 calls)

     Called by electrons:
     c_bands      :     16.23s CPU     17.22s WALL (      11 calls)
     sum_band     :      4.17s CPU      4.55s WALL (      11 calls)
     v_of_rho     :     11.20s CPU     12.28s WALL (      11 calls)
     v_h          :      0.35s CPU      0.39s WALL (      11 calls)
     v_xc         :     10.85s CPU     11.89s WALL (      11 calls)
     mix_rho      :      1.39s CPU      1.56s WALL (      11 calls)

     Called by c_bands:
     init_us_2    :      0.35s CPU      0.37s WALL (      46 calls)
     regterg      :     15.52s CPU     16.45s WALL (      22 calls)

     Called by sum_band:

     Called by *egterg:
     h_psi        :     14.98s CPU     15.89s WALL (      82 calls)
     g_psi        :      0.06s CPU      0.07s WALL (      58 calls)
     rdiaghg      :      0.04s CPU      0.04s WALL (      80 calls)
     regterg:over :      0.75s CPU      0.78s WALL (      58 calls)
     regterg:upda :      0.30s CPU      0.32s WALL (      58 calls)
     regterg:last :      0.12s CPU      0.13s WALL (      22 calls)

     Called by h_psi:
     h_psi:vloc   :     14.15s CPU     15.02s WALL (      82 calls)
     h_psi:vnl    :      0.76s CPU      0.80s WALL (      82 calls)
     add_vuspsi   :      0.33s CPU      0.34s WALL (      82 calls)

     General routines
     calbec       :      0.43s CPU      0.45s WALL (      82 calls)
     fft          :      7.86s CPU      8.74s WALL (     292 calls)
     fftw         :     14.21s CPU     15.20s WALL (    1056 calls)

     Parallel routines
     fft_scatter  :     11.93s CPU     12.97s WALL (    1348 calls)

     PWSCF        :    45.01s CPU        48.41s WALL


   This run was terminated on:   8:55:30  10May2016            

=------------------------------------------------------------------------------=
   JOB DONE.
=------------------------------------------------------------------------------=
