
     Program PWSCF v.5.1.1 starts on 10May2016 at 14:26:13 

     This program is part of the open-source Quantum ESPRESSO suite
     for quantum simulation of materials; please cite
         "P. Giannozzi et al., J. Phys.:Condens. Matter 21 395502 (2009);
          URL http://www.quantum-espresso.org", 
     in publications or presentations arising from this work. More details at
     http://www.quantum-espresso.org/quote

     Parallel version (MPI), running on     4 processors
     R & G space division:  proc/nbgrp/npool/nimage =       4
     Waiting for input...
     Reading input from standard input
 Reading EPCDFT CARD. Printing based upon belief that input should be reproducable from output.
     Reading   1 constraint(s); tolerance:  100.000000 max change in field 0.01
     epcdft_update_intrvl: 100
     epcdft with surface: T
          constraint           type   A   A   D   D      T      L
                   1  delta_charge    1   1   2   2 0.0000 0.0000

     Current dimensions of program PWSCF are:
     Max number of different atomic species (ntypx) = 10
     Max number of k-points (npk) =  40000
     Max angular momentum in pseudopotentials (lmaxx) =  3
               file Zn.pbe-mt_fhi.UPF: wavefunction(s)  4p 4f renormalized

     gamma-point specific algorithms are used
     Message from routine setup:
     the system is metallic, specify occupations

     Subspace diagonalization in iterative solution of the eigenvalue problem:
     a serial algorithm will be used


     Parallelization info
     --------------------
     sticks:   dense  smooth     PW     G-vecs:    dense   smooth      PW
     Min        2047    2047    512               139165   139165   17446
     Max        2052    2052    514               139168   139168   17450
     Sum        8197    8197   2053               556667   556667   69791
     Tot        4099    4099   1027

     Generating pointlists ...
     new r_m :   0.0687 (alat units)  1.5590 (a.u.) for type    1


     bravais-lattice index     =            1
     lattice parameter (alat)  =      22.6767  a.u.
     unit-cell volume          =   11661.1222 (a.u.)^3
     number of atoms/cell      =            2
     number of atomic types    =            1
     number of electrons       =        23.00 (up:  12.00, down:  11.00)
     number of Kohn-Sham states=           14
     kinetic-energy cutoff     =      50.0000  Ry
     charge density cutoff     =     200.0000  Ry
     convergence threshold     =      1.0E-07
     mixing beta               =       0.3000
     number of iterations used =            8  plain     mixing
     Exchange-correlation      = PBE ( 1  4  3  4 0 0)

     celldm(1)=  22.676714  celldm(2)=   0.000000  celldm(3)=   0.000000
     celldm(4)=   0.000000  celldm(5)=   0.000000  celldm(6)=   0.000000

     crystal axes: (cart. coord. in units of alat)
               a(1) = (   1.000000   0.000000   0.000000 )  
               a(2) = (   0.000000   1.000000   0.000000 )  
               a(3) = (   0.000000   0.000000   1.000000 )  

     reciprocal axes: (cart. coord. in units 2 pi/alat)
               b(1) = (  1.000000  0.000000  0.000000 )  
               b(2) = (  0.000000  1.000000  0.000000 )  
               b(3) = (  0.000000  0.000000  1.000000 )  


     PseudoPot. # 1 for Zn read from file:
     ../../pseudo/Zn.pbe-mt_fhi.UPF
     MD5 check sum: 5596c9f2b89b9f7367257e7ea958b26e
     Pseudo is Norm-conserving, Zval = 12.0
     Generated using FHI98PP, converted with fhi2upf.x v.5.0.2
     Using radial grid of  527 points,  3 beta functions with: 
                l(1) =   1
                l(2) =   2
                l(3) =   3

     atomic species   valence    mass     pseudopotential
        Zn            12.00    65.39000     Zn( 1.00)

     Starting magnetic structure 
     atomic species   magnetization
        Zn           0.000

     No symmetry found


                                    s                        frac. trans.

      isym =  1     identity                                     

 cryst.   s( 1) = (     1          0          0      )
                  (     0          1          0      )
                  (     0          0          1      )

 cart.    s( 1) = (  1.0000000  0.0000000  0.0000000 )
                  (  0.0000000  1.0000000  0.0000000 )
                  (  0.0000000  0.0000000  1.0000000 )


     point group C_1 (1)    
     there are  1 classes
     the character table:

       E    
A      1.00

     the symmetry operations in each class:
     E        1

   Cartesian axes

     site n.     atom                  positions (alat units)
         1           Zn  tau(   1) = (   0.4166667   0.4166667   0.5833333  )
         2           Zn  tau(   2) = (   0.4166667   0.4166667   0.4166667  )

   Crystallographic axes

     site n.     atom                  positions (cryst. coord.)
         1           Zn  tau(   1) = (  0.4166667  0.4166667  0.5833333  )
         2           Zn  tau(   2) = (  0.4166667  0.4166667  0.4166667  )

     number of k points=     2
                       cart. coord. in units 2pi/alat
        k(    1) = (   0.0000000   0.0000000   0.0000000), wk =   1.0000000
        k(    2) = (   0.0000000   0.0000000   0.0000000), wk =   1.0000000

                       cryst. coord.
        k(    1) = (   0.0000000   0.0000000   0.0000000), wk =   1.0000000
        k(    2) = (   0.0000000   0.0000000   0.0000000), wk =   1.0000000

     Dense  grid:   278334 G-vectors     FFT dimensions: ( 108, 108, 108)

     Largest allocated arrays     est. size (Mb)     dimensions
        Kohn-Sham Wavefunctions         1.86 Mb     (    8725,   14)
        NL pseudopotentials             3.99 Mb     (    8725,   30)
        Each V/rho on FFT grid          9.61 Mb     (  314928,   2)
        Each G-vector array             0.53 Mb     (   69584)
        G-vector shells                 0.02 Mb     (    2154)
     Largest temporary arrays     est. size (Mb)     dimensions
        Auxiliary wavefunctions         3.73 Mb     (    8725,   56)
        Each subspace H/S matrix        0.02 Mb     (      56,   56)
        Each <psi_i|beta_j> matrix      0.00 Mb     (      30,   14)
        Arrays for rho mixing          38.44 Mb     (  314928,    8)

     Initial potential from superposition of free atoms
     Check: negative starting charge=(component1):   -0.041597
     Check: negative starting charge=(component2):   -0.041597

     starting charge   23.99975, renormalised to   23.00000

     negative rho (up, down):  3.986E-02 3.986E-02
     
     Adding image charge field due to neutral metal slab at origin in XY plane.
     Including monopole and dipole terms.
     Quadrupole not implemented yet.
     System should not overlap with cell edges.
     

     reference position (x0):         9.44863066    9.44863066   11.33835680 bohr
     Total charge   1.0000
     Total dipole moment   0.0004   0.0004  -0.0002 au (Ha),   0.0010   0.0010  -0.0004 Debye


     First surface image interaction energy:-0.888E-01[Ry]


     reference position (x0):         9.44863066    9.44863066   11.33835680 bohr
     Total charge   1.0000
     Total dipole moment   0.0004   0.0004  -0.0002 au (Ha),   0.0010   0.0010  -0.0004 Debye

     Starting wfc are   32 randomized atomic wfcs

     total cpu time spent up to now is        4.7 secs

     per-process dynamical memory:    78.4 Mb

     Self-consistent Calculation

     iteration #  1     ecut=    50.00 Ry     beta=0.30
     Davidson diagonalization with overlap
     ethr =  1.00E-02,  avg # of iterations =  4.0

     negative rho (up, down):  2.722E-02 2.746E-02

     Magnetic moment per site:
     atom:    1    charge:    9.3413    magn:    0.0387    constr:    0.0000
     atom:    2    charge:    9.3361    magn:    0.0377    constr:    0.0000

     total cpu time spent up to now is        8.8 secs

     total energy              =    -217.97720160 Ry
     Harris-Foulkes estimate   =    -218.17058325 Ry
     estimated scf accuracy    <       0.53610249 Ry

     total magnetization       =     1.00 Bohr mag/cell
     absolute magnetization    =     1.00 Bohr mag/cell

     iteration #  2     ecut=    50.00 Ry     beta=0.30
     Davidson diagonalization with overlap
     ethr =  2.33E-03,  avg # of iterations =  1.5

     negative rho (up, down):  1.238E-02 1.274E-02

     Magnetic moment per site:
     atom:    1    charge:    9.4639    magn:    0.0772    constr:    0.0000
     atom:    2    charge:    9.4593    magn:    0.0765    constr:    0.0000

     total cpu time spent up to now is       11.6 secs

     total energy              =    -217.96671281 Ry
     Harris-Foulkes estimate   =    -218.01261854 Ry
     estimated scf accuracy    <       0.11759769 Ry

     total magnetization       =     1.00 Bohr mag/cell
     absolute magnetization    =     1.01 Bohr mag/cell

     iteration #  3     ecut=    50.00 Ry     beta=0.30
     Davidson diagonalization with overlap
     ethr =  5.11E-04,  avg # of iterations =  2.0

     negative rho (up, down):  6.631E-03 6.960E-03

     Magnetic moment per site:
     atom:    1    charge:    9.4587    magn:    0.0854    constr:    0.0000
     atom:    2    charge:    9.4569    magn:    0.0853    constr:    0.0000

     total cpu time spent up to now is       15.3 secs

     total energy              =    -217.99278334 Ry
     Harris-Foulkes estimate   =    -217.99166790 Ry
     estimated scf accuracy    <       0.00960805 Ry

     total magnetization       =     1.00 Bohr mag/cell
     absolute magnetization    =     1.04 Bohr mag/cell

     iteration #  4     ecut=    50.00 Ry     beta=0.30
     Davidson diagonalization with overlap
     ethr =  4.18E-05,  avg # of iterations =  2.0

     negative rho (up, down):  2.362E-05 2.428E-05

     Magnetic moment per site:
     atom:    1    charge:    9.4777    magn:    0.0978    constr:    0.0000
     atom:    2    charge:    9.4765    magn:    0.0984    constr:    0.0000

     total cpu time spent up to now is       18.3 secs

     total energy              =    -217.99451684 Ry
     Harris-Foulkes estimate   =    -217.99375884 Ry
     estimated scf accuracy    <       0.00274904 Ry

     total magnetization       =     1.00 Bohr mag/cell
     absolute magnetization    =     1.05 Bohr mag/cell

     iteration #  5     ecut=    50.00 Ry     beta=0.30
     Davidson diagonalization with overlap
     ethr =  1.20E-05,  avg # of iterations =  2.5

     negative rho (up, down):  2.077E-05 2.133E-05

     Magnetic moment per site:
     atom:    1    charge:    9.4715    magn:    0.0957    constr:    0.0000
     atom:    2    charge:    9.4702    magn:    0.0962    constr:    0.0000

     total cpu time spent up to now is       21.5 secs

     total energy              =    -217.99494290 Ry
     Harris-Foulkes estimate   =    -217.99503239 Ry
     estimated scf accuracy    <       0.00034385 Ry

     total magnetization       =     1.00 Bohr mag/cell
     absolute magnetization    =     1.08 Bohr mag/cell

     iteration #  6     ecut=    50.00 Ry     beta=0.30
     Davidson diagonalization with overlap
     ethr =  1.49E-06,  avg # of iterations =  5.5

     Magnetic moment per site:
     atom:    1    charge:    9.4672    magn:    0.0930    constr:    0.0000
     atom:    2    charge:    9.4658    magn:    0.0936    constr:    0.0000

     total cpu time spent up to now is       25.4 secs

     total energy              =    -217.99499452 Ry
     Harris-Foulkes estimate   =    -217.99494558 Ry
     estimated scf accuracy    <       0.00003691 Ry

     total magnetization       =     1.00 Bohr mag/cell
     absolute magnetization    =     1.08 Bohr mag/cell

     iteration #  7     ecut=    50.00 Ry     beta=0.30
     Davidson diagonalization with overlap
     ethr =  1.60E-07,  avg # of iterations =  3.0

     Magnetic moment per site:
     atom:    1    charge:    9.4681    magn:    0.0926    constr:    0.0000
     atom:    2    charge:    9.4667    magn:    0.0932    constr:    0.0000

     total cpu time spent up to now is       29.2 secs

     total energy              =    -217.99500542 Ry
     Harris-Foulkes estimate   =    -217.99500880 Ry
     estimated scf accuracy    <       0.00001298 Ry

     total magnetization       =     1.00 Bohr mag/cell
     absolute magnetization    =     1.09 Bohr mag/cell

     iteration #  8     ecut=    50.00 Ry     beta=0.30
     Davidson diagonalization with overlap
     ethr =  5.64E-08,  avg # of iterations =  2.0

     Magnetic moment per site:
     atom:    1    charge:    9.4679    magn:    0.0924    constr:    0.0000
     atom:    2    charge:    9.4665    magn:    0.0930    constr:    0.0000

     total cpu time spent up to now is       32.9 secs

     total energy              =    -217.99500576 Ry
     Harris-Foulkes estimate   =    -217.99500875 Ry
     estimated scf accuracy    <       0.00000038 Ry

     total magnetization       =     1.00 Bohr mag/cell
     absolute magnetization    =     1.09 Bohr mag/cell

     iteration #  9     ecut=    50.00 Ry     beta=0.30
     Davidson diagonalization with overlap
     ethr =  1.67E-09,  avg # of iterations =  2.5

     Magnetic moment per site:
     atom:    1    charge:    9.4682    magn:    0.0924    constr:    0.0000
     atom:    2    charge:    9.4668    magn:    0.0930    constr:    0.0000

     total cpu time spent up to now is       36.0 secs

     total energy              =    -217.99500787 Ry
     Harris-Foulkes estimate   =    -217.99500903 Ry
     estimated scf accuracy    <       0.00000053 Ry

     total magnetization       =     1.00 Bohr mag/cell
     absolute magnetization    =     1.09 Bohr mag/cell

     iteration # 10     ecut=    50.00 Ry     beta=0.30
     Davidson diagonalization with overlap
     ethr =  1.67E-09,  avg # of iterations =  2.5

     reference position (x0):         9.44863066    9.44863066   11.33835680 bohr
     Total charge   1.0000
     Total dipole moment  -0.0004  -0.0004  -0.1541 au (Ha),  -0.0010  -0.0010  -0.3917 Debye

       I         D           A         Val      Target            Str
       1 0.108E+01   0.105E+01   0.372E-01   0.000E+00   0.000000E+00
     Image interaction energy: -0.890E-01 [Ry] Change: -0.213E-03 [Ry] Tolerance:  0.100E-04 [Ry]

     Magnetic moment per site:
     atom:    1    charge:    9.4682    magn:    0.0924    constr:    0.0000
     atom:    2    charge:    9.4668    magn:    0.0930    constr:    0.0000

     total cpu time spent up to now is       40.0 secs

     total energy              =    -217.99500912 Ry
     Harris-Foulkes estimate   =    -217.99500882 Ry
     estimated scf accuracy    <       0.00000009 Ry

     total magnetization       =     1.00 Bohr mag/cell
     absolute magnetization    =     1.09 Bohr mag/cell

     iteration # 11     ecut=    50.00 Ry     beta=0.30
     Davidson diagonalization with overlap
     ethr =  3.87E-10,  avg # of iterations =  1.0

     reference position (x0):         9.44863066    9.44863066   11.33835680 bohr
     Total charge   1.0000
     Total dipole moment  -0.0004  -0.0004  -0.1541 au (Ha),  -0.0010  -0.0010  -0.3917 Debye

       I         D           A         Val      Target            Str
       1 0.108E+01   0.105E+01   0.372E-01   0.000E+00   0.000000E+00
     Image interaction energy: -0.890E-01 [Ry] Change: -0.295E-08 [Ry] Tolerance:  0.100E-04 [Ry]

     reference position (x0):         9.44863066    9.44863066   11.33835680 bohr
     Total charge   1.0000
     Total dipole moment  -0.0004  -0.0004  -0.1541 au (Ha),  -0.0010  -0.0010  -0.3917 Debye


     Magnetic moment per site:
     atom:    1    charge:    9.4680    magn:    0.0924    constr:    0.0000
     atom:    2    charge:    9.4666    magn:    0.0930    constr:    0.0000

     total cpu time spent up to now is       42.7 secs

     End of self-consistent calculation

 ------ SPIN UP ------------


          k = 0.0000 0.0000 0.0000 ( 34896 PWs)   bands (ev):

   -14.2779   -13.5675   -13.5675   -12.7941   -12.7902   -12.5633   -12.5461   -12.3338
   -12.3337   -12.2830   -10.3310    -6.4817    -3.7004    -2.8658
     occupation numbers 
     1.0000   1.0000   1.0000   1.0000   1.0000   1.0000   1.0000   1.0000
     1.0000   1.0000   1.0000   1.0000   0.0000   0.0000

 ------ SPIN DOWN ----------


          k = 0.0000 0.0000 0.0000 ( 34896 PWs)   bands (ev):

   -14.1463   -13.4583   -13.4583   -12.7160   -12.7118   -12.4841   -12.4670   -12.1793
   -12.1793   -12.0961   -10.0863    -5.5569    -3.3471    -3.3470
     occupation numbers 
     1.0000   1.0000   1.0000   1.0000   1.0000   1.0000   1.0000   1.0000
     1.0000   1.0000   1.0000   0.0000   0.0000   0.0000

     highest occupied level (ev):    -6.4817

     reference position (x0):         9.44863066    9.44863066   11.33835680 bohr
     Total charge   1.0000
     Total dipole moment  -0.0004  -0.0004  -0.1541 au (Ha),  -0.0010  -0.0010  -0.3917 Debye

       I         D           A         Val      Target            Str
       1 0.108E+01   0.105E+01   0.372E-01   0.000E+00   0.000000E+00
     Image interaction energy: -0.890E-01 [Ry] Change: -0.295E-08 [Ry] Tolerance:  0.100E-04 [Ry]

!    total energy              =    -217.99502802 Ry
     Harris-Foulkes estimate   =    -217.99500882 Ry
     estimated scf accuracy    <       0.00000009 Ry

     The total energy is the sum of the following terms:

     one-electron contribution =    -400.00110645 Ry
     hartree contribution      =     209.59559282 Ry
     xc contribution           =     -32.48741502 Ry
     ewald contribution        =       4.90223735 Ry
     CDFT correction           =      -0.00000000 Ry
     scf correction            =      -0.00433673 Ry

     total magnetization       =     1.00 Bohr mag/cell
     absolute magnetization    =     1.09 Bohr mag/cell

     convergence has been achieved in  11 iterations

     Writing output data file left.save

     init_run     :      4.19s CPU      4.66s WALL (       1 calls)
     electrons    :     35.01s CPU     38.69s WALL (       1 calls)

     Called by init_run:
     wfcinit      :      1.75s CPU      2.04s WALL (       1 calls)
     potinit      :      1.81s CPU      1.97s WALL (       1 calls)

     Called by electrons:
     c_bands      :     16.54s CPU     17.96s WALL (      11 calls)
     sum_band     :      4.25s CPU      5.24s WALL (      11 calls)
     v_of_rho     :     11.06s CPU     11.97s WALL (      11 calls)
     v_h          :      0.43s CPU      0.44s WALL (      11 calls)
     v_xc         :     10.63s CPU     11.53s WALL (      11 calls)
     mix_rho      :      1.61s CPU      1.73s WALL (      11 calls)

     Called by c_bands:
     init_us_2    :      0.36s CPU      0.37s WALL (      46 calls)
     regterg      :     15.83s CPU     17.23s WALL (      22 calls)

     Called by sum_band:

     Called by *egterg:
     h_psi        :     16.06s CPU     17.59s WALL (      81 calls)
     g_psi        :      0.06s CPU      0.08s WALL (      57 calls)
     rdiaghg      :      0.04s CPU      0.04s WALL (      79 calls)
     regterg:over :      0.48s CPU      0.53s WALL (      57 calls)
     regterg:upda :      0.29s CPU      0.31s WALL (      57 calls)
     regterg:last :      0.12s CPU      0.14s WALL (      22 calls)

     Called by h_psi:
     h_psi:vloc   :     15.25s CPU     16.70s WALL (      81 calls)
     h_psi:vnl    :      0.74s CPU      0.82s WALL (      81 calls)
     add_vuspsi   :      0.32s CPU      0.34s WALL (      81 calls)

     General routines
     calbec       :      0.42s CPU      0.48s WALL (      81 calls)
     fft          :      7.97s CPU      8.94s WALL (     292 calls)
     fftw         :     15.21s CPU     17.03s WALL (    1040 calls)

     Parallel routines
     fft_scatter  :     13.09s CPU     14.69s WALL (    1332 calls)

     PWSCF        :    39.40s CPU        43.59s WALL


   This run was terminated on:  14:26:57  10May2016            

=------------------------------------------------------------------------------=
   JOB DONE.
=------------------------------------------------------------------------------=
