
     Program PWSCF v.5.1.1 starts on 12Jun2015 at 14:17:35 

     This program is part of the open-source Quantum ESPRESSO suite
     for quantum simulation of materials; please cite
         "P. Giannozzi et al., J. Phys.:Condens. Matter 21 395502 (2009);
          URL http://www.quantum-espresso.org", 
     in publications or presentations arising from this work. More details at
     http://www.quantum-espresso.org/quote

     Parallel version (MPI & OpenMP), running on       8 processor cores
     Number of MPI processes:                 8
     Threads/MPI process:                     1
     R & G space division:  proc/nbgrp/npool/nimage =       8
     Waiting for input...
     Reading input from standard input

     Current dimensions of program PWSCF are:
     Max number of different atomic species (ntypx) = 10
     Max number of k-points (npk) =  40000
     Max angular momentum in pseudopotentials (lmaxx) =  3
               file Zn.pbe-mt_fhi.UPF: wavefunction(s)  4p 4f renormalized

     gamma-point specific algorithms are used
     Message from routine setup:
     the system is metallic, specify occupations

     Subspace diagonalization in iterative solution of the eigenvalue problem:
     scalapack distributed-memory algorithm (size of sub-group:  2*  2 procs)

     Found symmetry operation: I + ( -0.5000  0.0000  0.0000)
     This is a supercell, fractional translations are disabled
 
     Parallelization info
     --------------------
     sticks:   dense  smooth     PW     G-vecs:    dense   smooth      PW
     Min         851     851    212                52960    52960    6612
     Max         854     854    214                52966    52966    6618
     Sum        6817    6817   1701               423701   423701   52923
     Tot        3409    3409    851
 
     Generating pointlists ...
     new r_m :   0.2063 (alat units)  3.8976 (a.u.) for type    1


     bravais-lattice index     =            1
     lattice parameter (alat)  =      18.8973  a.u.
     unit-cell volume          =    6748.3346 (a.u.)^3
     number of atoms/cell      =            2
     number of atomic types    =            1
     number of electrons       =        23.00 (up:  12.00, down:  11.00)
     number of Kohn-Sham states=           12
     kinetic-energy cutoff     =      60.0000  Ry
     charge density cutoff     =     240.0000  Ry
     convergence threshold     =      1.0E-10
     mixing beta               =       0.3000
     number of iterations used =            8  plain     mixing
     Exchange-correlation      = PBE ( 1  4  3  4 0 0)

     celldm(1)=  18.897261  celldm(2)=   0.000000  celldm(3)=   0.000000
     celldm(4)=   0.000000  celldm(5)=   0.000000  celldm(6)=   0.000000

     crystal axes: (cart. coord. in units of alat)
               a(1) = (   1.000000   0.000000   0.000000 )  
               a(2) = (   0.000000   1.000000   0.000000 )  
               a(3) = (   0.000000   0.000000   1.000000 )  

     reciprocal axes: (cart. coord. in units 2 pi/alat)
               b(1) = (  1.000000  0.000000  0.000000 )  
               b(2) = (  0.000000  1.000000  0.000000 )  
               b(3) = (  0.000000  0.000000  1.000000 )  


     PseudoPot. # 1 for Zn read from file:
     ../pseudo/Zn.pbe-mt_fhi.UPF
     MD5 check sum: 5596c9f2b89b9f7367257e7ea958b26e
     Pseudo is Norm-conserving, Zval = 12.0
     Generated using FHI98PP, converted with fhi2upf.x v.5.0.2
     Using radial grid of  527 points,  3 beta functions with: 
                l(1) =   1
                l(2) =   2
                l(3) =   3

     atomic species   valence    mass     pseudopotential
        Zn            12.00    65.39000     Zn( 1.00)

     Starting magnetic structure 
     atomic species   magnetization
        Zn           0.000

     No symmetry found


                                    s                        frac. trans.

      isym =  1     identity                                     

 cryst.   s( 1) = (     1          0          0      )
                  (     0          1          0      )
                  (     0          0          1      )

 cart.    s( 1) = (  1.0000000  0.0000000  0.0000000 )
                  (  0.0000000  1.0000000  0.0000000 )
                  (  0.0000000  0.0000000  1.0000000 )


     point group C_1 (1)    
     there are  1 classes
     the character table:

       E    
A      1.00

     the symmetry operations in each class:
     E        1

   Cartesian axes

     site n.     atom                  positions (alat units)
         1           Zn  tau(   1) = (   0.0000000   0.0000000   0.0000000  )
         2           Zn  tau(   2) = (   0.5000000   0.0000000   0.0000000  )

   Crystallographic axes

     site n.     atom                  positions (cryst. coord.)
         1           Zn  tau(   1) = (  0.0000000  0.0000000  0.0000000  )
         2           Zn  tau(   2) = (  0.5000000  0.0000000  0.0000000  )

     number of k points=     2
                       cart. coord. in units 2pi/alat
        k(    1) = (   0.0000000   0.0000000   0.0000000), wk =   1.0000000
        k(    2) = (   0.0000000   0.0000000   0.0000000), wk =   1.0000000

                       cryst. coord.
        k(    1) = (   0.0000000   0.0000000   0.0000000), wk =   1.0000000
        k(    2) = (   0.0000000   0.0000000   0.0000000), wk =   1.0000000

     Dense  grid:   211851 G-vectors     FFT dimensions: (  96,  96,  96)

     Largest allocated arrays     est. size (Mb)     dimensions
        Kohn-Sham Wavefunctions         0.61 Mb     (    3308,   12)
        NL pseudopotentials             1.51 Mb     (    3308,   30)
        Each V/rho on FFT grid          3.38 Mb     (  110592,   2)
        Each G-vector array             0.20 Mb     (   26482)
        G-vector shells                 0.01 Mb     (    1749)
     Largest temporary arrays     est. size (Mb)     dimensions
        Auxiliary wavefunctions         1.21 Mb     (    3308,   48)
        Each subspace H/S matrix        0.00 Mb     (      24,   24)
        Each <psi_i|beta_j> matrix      0.00 Mb     (      30,   12)
        Arrays for rho mixing          13.50 Mb     (  110592,    8)
 
     Using Voronoi cells
     Adding the potential well
        Amplitude [Ry a.u.] : -3.8717E-01
        Fragment start :           1
        Fragment end   :           1
 

     Initial potential from superposition of free atoms
     Check: negative starting charge=(component1):   -0.000227
     Check: negative starting charge=(component2):   -0.000227

     starting charge   23.99975, renormalised to   23.00000

     negative rho (up, down):  2.175E-04 2.175E-04
     Starting wfc are   32 randomized atomic wfcs

     total cpu time spent up to now is        1.5 secs

     per-process dynamical memory:    35.6 Mb

     Self-consistent Calculation

     iteration #  1     ecut=    60.00 Ry     beta=0.30
     Davidson diagonalization with overlap
     ethr =  1.00E-02,  avg # of iterations =  2.0

     negative rho (up, down):  1.174E-04 1.243E-04
 
     Magnetic moment per site:
     atom:    1    charge:   11.5081    magn:    0.0008    constr:    0.0000
     atom:    2    charge:   11.2171    magn:    0.2854    constr:    0.0000

     total cpu time spent up to now is        2.9 secs

     The total energy is the sum of the following terms:

     one-electron contribution =    -318.88557865 Ry
     hartree contribution      =     161.25855480 Ry
     xc contribution           =     -31.76244226 Ry
     ewald contribution        =     -44.70331250 Ry

     total energy              =    -224.85639506 Ry
     Harris-Foulkes estimate   =    -225.12263368 Ry
     estimated scf accuracy    <       0.63054836 Ry

     total magnetization       =     1.00 Bohr mag/cell
     absolute magnetization    =     1.00 Bohr mag/cell

     iteration #  2     ecut=    60.00 Ry     beta=0.30
     Davidson diagonalization with overlap
     ethr =  2.74E-03,  avg # of iterations =  2.0

     negative rho (up, down):  1.816E-05 2.229E-05
 
     Magnetic moment per site:
     atom:    1    charge:   11.7365    magn:    0.0022    constr:    0.0000
     atom:    2    charge:   11.0595    magn:    0.6795    constr:    0.0000

     total cpu time spent up to now is        4.2 secs

     The total energy is the sum of the following terms:

     one-electron contribution =    -316.13790282 Ry
     hartree contribution      =     165.83404423 Ry
     xc contribution           =     -32.47515485 Ry
     ewald contribution        =     -44.70331250 Ry

     total energy              =    -224.78301597 Ry
     Harris-Foulkes estimate   =    -224.88863449 Ry
     estimated scf accuracy    <       0.16703656 Ry

     total magnetization       =     1.00 Bohr mag/cell
     absolute magnetization    =     1.00 Bohr mag/cell

     iteration #  3     ecut=    60.00 Ry     beta=0.30
     Davidson diagonalization with overlap
     ethr =  7.26E-04,  avg # of iterations =  3.0

     negative rho (up, down):  1.651E-06 2.250E-06
 
     Magnetic moment per site:
     atom:    1    charge:   11.7786    magn:    0.0054    constr:    0.0000
     atom:    2    charge:   11.0028    magn:    0.8266    constr:    0.0000

     total cpu time spent up to now is        5.6 secs

     The total energy is the sum of the following terms:

     one-electron contribution =    -312.60637124 Ry
     hartree contribution      =     164.54761530 Ry
     xc contribution           =     -32.29995549 Ry
     ewald contribution        =     -44.70331250 Ry

     total energy              =    -224.81873739 Ry
     Harris-Foulkes estimate   =    -224.82182022 Ry
     estimated scf accuracy    <       0.00953780 Ry

     total magnetization       =     1.00 Bohr mag/cell
     absolute magnetization    =     1.01 Bohr mag/cell

     iteration #  4     ecut=    60.00 Ry     beta=0.30
     Davidson diagonalization with overlap
     ethr =  4.15E-05,  avg # of iterations =  2.0

     negative rho (up, down):  2.098E-08 3.350E-08
 
     Magnetic moment per site:
     atom:    1    charge:   11.8230    magn:    0.0060    constr:    0.0000
     atom:    2    charge:   10.9695    magn:    0.9137    constr:    0.0000

     total cpu time spent up to now is        7.0 secs

     The total energy is the sum of the following terms:

     one-electron contribution =    -313.69764558 Ry
     hartree contribution      =     165.43980685 Ry
     xc contribution           =     -32.44551684 Ry
     ewald contribution        =     -44.70331250 Ry

     total energy              =    -224.81931675 Ry
     Harris-Foulkes estimate   =    -224.82333737 Ry
     estimated scf accuracy    <       0.00707189 Ry

     total magnetization       =     1.00 Bohr mag/cell
     absolute magnetization    =     1.01 Bohr mag/cell

     iteration #  5     ecut=    60.00 Ry     beta=0.30
     Davidson diagonalization with overlap
     ethr =  3.07E-05,  avg # of iterations =  3.0
 
     Magnetic moment per site:
     atom:    1    charge:   11.8294    magn:    0.0074    constr:    0.0000
     atom:    2    charge:   10.9599    magn:    0.9448    constr:    0.0000

     total cpu time spent up to now is        8.5 secs

     The total energy is the sum of the following terms:

     one-electron contribution =    -313.00005081 Ry
     hartree contribution      =     165.44197381 Ry
     xc contribution           =     -32.45351077 Ry
     ewald contribution        =     -44.70331250 Ry

     total energy              =    -224.82102008 Ry
     Harris-Foulkes estimate   =    -224.82086612 Ry
     estimated scf accuracy    <       0.00011762 Ry

     total magnetization       =     1.00 Bohr mag/cell
     absolute magnetization    =     1.02 Bohr mag/cell

     iteration #  6     ecut=    60.00 Ry     beta=0.30
     Davidson diagonalization with overlap
     ethr =  5.11E-07,  avg # of iterations =  3.0
 
     Magnetic moment per site:
     atom:    1    charge:   11.8274    magn:    0.0081    constr:    0.0000
     atom:    2    charge:   10.9589    magn:    0.9524    constr:    0.0000

     total cpu time spent up to now is       10.0 secs

     The total energy is the sum of the following terms:

     one-electron contribution =    -312.98894880 Ry
     hartree contribution      =     165.40421404 Ry
     xc contribution           =     -32.45142796 Ry
     ewald contribution        =     -44.70331250 Ry

     total energy              =    -224.82103781 Ry
     Harris-Foulkes estimate   =    -224.82103713 Ry
     estimated scf accuracy    <       0.00005445 Ry

     total magnetization       =     1.00 Bohr mag/cell
     absolute magnetization    =     1.02 Bohr mag/cell

     iteration #  7     ecut=    60.00 Ry     beta=0.30
     Davidson diagonalization with overlap
     ethr =  2.37E-07,  avg # of iterations =  1.5
 
     Magnetic moment per site:
     atom:    1    charge:   11.8264    magn:    0.0080    constr:    0.0000
     atom:    2    charge:   10.9590    magn:    0.9529    constr:    0.0000

     total cpu time spent up to now is       11.4 secs

     The total energy is the sum of the following terms:

     one-electron contribution =    -313.00331613 Ry
     hartree contribution      =     165.36146756 Ry
     xc contribution           =     -32.44551259 Ry
     ewald contribution        =     -44.70331250 Ry

     total energy              =    -224.82102847 Ry
     Harris-Foulkes estimate   =    -224.82104139 Ry
     estimated scf accuracy    <       0.00002036 Ry

     total magnetization       =     1.00 Bohr mag/cell
     absolute magnetization    =     1.02 Bohr mag/cell

     iteration #  8     ecut=    60.00 Ry     beta=0.30
     Davidson diagonalization with overlap
     ethr =  8.85E-08,  avg # of iterations =  3.0
 
     Magnetic moment per site:
     atom:    1    charge:   11.8261    magn:    0.0079    constr:    0.0000
     atom:    2    charge:   10.9593    magn:    0.9523    constr:    0.0000

     total cpu time spent up to now is       12.8 secs

     The total energy is the sum of the following terms:

     one-electron contribution =    -313.04020533 Ry
     hartree contribution      =     165.35530013 Ry
     xc contribution           =     -32.44442425 Ry
     ewald contribution        =     -44.70331250 Ry

     total energy              =    -224.82103390 Ry
     Harris-Foulkes estimate   =    -224.82103354 Ry
     estimated scf accuracy    <       0.00000022 Ry

     total magnetization       =     1.00 Bohr mag/cell
     absolute magnetization    =     1.02 Bohr mag/cell

     iteration #  9     ecut=    60.00 Ry     beta=0.30
     Davidson diagonalization with overlap
     ethr =  9.58E-10,  avg # of iterations =  3.0
 
     Magnetic moment per site:
     atom:    1    charge:   11.8264    magn:    0.0078    constr:    0.0000
     atom:    2    charge:   10.9592    magn:    0.9525    constr:    0.0000

     total cpu time spent up to now is       14.4 secs

     The total energy is the sum of the following terms:

     one-electron contribution =    -313.04653883 Ry
     hartree contribution      =     165.36354319 Ry
     xc contribution           =     -32.44555696 Ry
     ewald contribution        =     -44.70331250 Ry

     total energy              =    -224.82103354 Ry
     Harris-Foulkes estimate   =    -224.82103408 Ry
     estimated scf accuracy    <       0.00000113 Ry

     total magnetization       =     1.00 Bohr mag/cell
     absolute magnetization    =     1.02 Bohr mag/cell

     iteration # 10     ecut=    60.00 Ry     beta=0.30
     Davidson diagonalization with overlap
     ethr =  9.58E-10,  avg # of iterations =  3.0
 
     Magnetic moment per site:
     atom:    1    charge:   11.8265    magn:    0.0078    constr:    0.0000
     atom:    2    charge:   10.9592    magn:    0.9525    constr:    0.0000

     total cpu time spent up to now is       15.9 secs

     The total energy is the sum of the following terms:

     one-electron contribution =    -313.04022990 Ry
     hartree contribution      =     165.36634537 Ry
     xc contribution           =     -32.44591930 Ry
     ewald contribution        =     -44.70331250 Ry

     total energy              =    -224.82103363 Ry
     Harris-Foulkes estimate   =    -224.82103367 Ry
     estimated scf accuracy    <       0.00000008 Ry

     total magnetization       =     1.00 Bohr mag/cell
     absolute magnetization    =     1.02 Bohr mag/cell

     iteration # 11     ecut=    60.00 Ry     beta=0.30
     Davidson diagonalization with overlap
     ethr =  3.34E-10,  avg # of iterations =  3.0
 
     Magnetic moment per site:
     atom:    1    charge:   11.8265    magn:    0.0078    constr:    0.0000
     atom:    2    charge:   10.9592    magn:    0.9525    constr:    0.0000

     total cpu time spent up to now is       17.3 secs

     The total energy is the sum of the following terms:

     one-electron contribution =    -313.03793242 Ry
     hartree contribution      =     165.36613134 Ry
     xc contribution           =     -32.44588965 Ry
     ewald contribution        =     -44.70331250 Ry

     total energy              =    -224.82103365 Ry
     Harris-Foulkes estimate   =    -224.82103365 Ry
     estimated scf accuracy    <          2.1E-10 Ry

     total magnetization       =     1.00 Bohr mag/cell
     absolute magnetization    =     1.02 Bohr mag/cell

     iteration # 12     ecut=    60.00 Ry     beta=0.30
     Davidson diagonalization with overlap
     ethr =  9.03E-13,  avg # of iterations =  4.0
 
     Magnetic moment per site:
     atom:    1    charge:   11.8265    magn:    0.0078    constr:    0.0000
     atom:    2    charge:   10.9592    magn:    0.9525    constr:    0.0000

     total cpu time spent up to now is       18.8 secs

     End of self-consistent calculation

 ------ SPIN UP ------------


          k = 0.0000 0.0000 0.0000 ( 26462 PWs)   bands (ev):

   -15.2998 -15.2996 -15.2986 -15.2986 -15.2985 -14.7915 -14.7786 -14.7786
   -14.7509 -14.7501 -10.7904 -10.1065

     occupation numbers 
     1.0000   1.0000   1.0000   1.0000   1.0000   1.0000   1.0000   1.0000
     1.0000   1.0000   1.0000   1.0000

 ------ SPIN DOWN ----------


          k = 0.0000 0.0000 0.0000 ( 26462 PWs)   bands (ev):

   -15.0488 -15.0478 -15.0478 -15.0478 -15.0469 -14.7890 -14.7762 -14.7762
   -14.7492 -14.7485 -10.7672  -8.9356

     occupation numbers 
     1.0000   1.0000   1.0000   1.0000   1.0000   1.0000   1.0000   1.0000
     1.0000   1.0000   1.0000   0.0000

     highest occupied level (ev):   -10.1065

     The total energy is the sum of the following terms:

     one-electron contribution =    -313.03804753 Ry
     hartree contribution      =     165.36623416 Ry
     xc contribution           =     -32.44590779 Ry
     ewald contribution        =     -44.70331250 Ry

!    total energy              =    -224.82103365 Ry
     Harris-Foulkes estimate   =    -224.82103365 Ry
     estimated scf accuracy    <          7.4E-11 Ry

     The total energy is the sum of the following terms:

     one-electron contribution =    -313.03804753 Ry
     hartree contribution      =     165.36623416 Ry
     xc contribution           =     -32.44590779 Ry
     ewald contribution        =     -44.70331250 Ry
     electric field correction =       0.00000000 Ry

     total magnetization       =     1.00 Bohr mag/cell
     absolute magnetization    =     1.02 Bohr mag/cell

     convergence has been achieved in  12 iterations
 
     Using Voronoi cells
     Adding the potential well
        Amplitude [Ry a.u.] : -3.8717E-01
        Fragment start :           1
        Fragment end   :           1
 
 
     Using Voronoi cells
     Adding the potential well
        Amplitude [Ry a.u.] : -3.8717E-01
        Fragment start :           1
        Fragment end   :           1
 
     E field correction :    4.64226683060988       Ry
     #e's   in well     :   0.980508978536342       electrons
     Surplus/deficit electrons    :    1.949102146365789E-002 electrons
     epcdft_thr                   :    1.000000000000000E-006 electrons
 
     -----------------------------------------------
 
                      SCF converged but...
 
     electron localization condition NOT satisfied
     restarting scf with different applied potential
 
     New field Amp      :  -0.388170000000000       Ry
     charge density from previous step
 
     Using Voronoi cells
     Adding the potential well
        Amplitude [Ry a.u.] : -3.8817E-01
        Fragment start :           1
        Fragment end   :           1
 

     total cpu time spent up to now is       19.6 secs

     per-process dynamical memory:    47.6 Mb

     Self-consistent Calculation

     iteration #  1     ecut=    60.00 Ry     beta=0.30
     Davidson diagonalization with overlap
     ethr =  9.03E-13,  avg # of iterations =  6.0
 
     Magnetic moment per site:
     atom:    1    charge:   11.8265    magn:    0.0078    constr:    0.0000
     atom:    2    charge:   10.9592    magn:    0.9525    constr:    0.0000

     total cpu time spent up to now is       21.4 secs

     The total energy is the sum of the following terms:

     one-electron contribution =    -313.05014191 Ry
     hartree contribution      =     165.36626910 Ry
     xc contribution           =     -32.44591151 Ry
     ewald contribution        =     -44.70331250 Ry

     total energy              =    -224.83302395 Ry
     Harris-Foulkes estimate   =    -224.83302396 Ry
     estimated scf accuracy    <          5.7E-09 Ry

     total magnetization       =     1.00 Bohr mag/cell
     absolute magnetization    =     1.02 Bohr mag/cell

     iteration #  2     ecut=    60.00 Ry     beta=0.30
     Davidson diagonalization with overlap
     ethr =  2.48E-11,  avg # of iterations =  1.5
 
     Magnetic moment per site:
     atom:    1    charge:   11.8266    magn:    0.0077    constr:    0.0000
     atom:    2    charge:   10.9591    magn:    0.9525    constr:    0.0000

     total cpu time spent up to now is       22.7 secs

     The total energy is the sum of the following terms:

     one-electron contribution =    -313.05008436 Ry
     hartree contribution      =     165.36628132 Ry
     xc contribution           =     -32.44591317 Ry
     ewald contribution        =     -44.70331250 Ry

     total energy              =    -224.83302395 Ry
     Harris-Foulkes estimate   =    -224.83302395 Ry
     estimated scf accuracy    <          2.2E-09 Ry

     total magnetization       =     1.00 Bohr mag/cell
     absolute magnetization    =     1.02 Bohr mag/cell

     iteration #  3     ecut=    60.00 Ry     beta=0.30
     Davidson diagonalization with overlap
     ethr =  9.41E-12,  avg # of iterations =  2.0
 
     Magnetic moment per site:
     atom:    1    charge:   11.8266    magn:    0.0077    constr:    0.0000
     atom:    2    charge:   10.9591    magn:    0.9525    constr:    0.0000

     total cpu time spent up to now is       24.0 secs

     The total energy is the sum of the following terms:

     one-electron contribution =    -313.05003855 Ry
     hartree contribution      =     165.36625617 Ry
     xc contribution           =     -32.44591223 Ry
     ewald contribution        =     -44.70331250 Ry

     total energy              =    -224.83302395 Ry
     Harris-Foulkes estimate   =    -224.83302395 Ry
     estimated scf accuracy    <          1.5E-10 Ry

     total magnetization       =     1.00 Bohr mag/cell
     absolute magnetization    =     1.02 Bohr mag/cell

     iteration #  4     ecut=    60.00 Ry     beta=0.30
     Davidson diagonalization with overlap
     ethr =  6.40E-13,  avg # of iterations =  2.0
 
     Magnetic moment per site:
     atom:    1    charge:   11.8266    magn:    0.0077    constr:    0.0000
     atom:    2    charge:   10.9591    magn:    0.9525    constr:    0.0000

     total cpu time spent up to now is       25.2 secs

     End of self-consistent calculation

 ------ SPIN UP ------------


          k = 0.0000 0.0000 0.0000 ( 26462 PWs)   bands (ev):

   -15.3003 -15.3001 -15.2992 -15.2992 -15.2991 -14.8044 -14.7915 -14.7915
   -14.7638 -14.7630 -10.8030 -10.1075

     occupation numbers 
     1.0000   1.0000   1.0000   1.0000   1.0000   1.0000   1.0000   1.0000
     1.0000   1.0000   1.0000   1.0000

 ------ SPIN DOWN ----------


          k = 0.0000 0.0000 0.0000 ( 26462 PWs)   bands (ev):

   -15.0494 -15.0484 -15.0484 -15.0484 -15.0475 -14.8019 -14.7892 -14.7892
   -14.7622 -14.7614 -10.7803  -8.9360

     occupation numbers 
     1.0000   1.0000   1.0000   1.0000   1.0000   1.0000   1.0000   1.0000
     1.0000   1.0000   1.0000   0.0000

     highest occupied level (ev):   -10.1075

     The total energy is the sum of the following terms:

     one-electron contribution =    -313.05006017 Ry
     hartree contribution      =     165.36626402 Ry
     xc contribution           =     -32.44591531 Ry
     ewald contribution        =     -44.70331250 Ry

!    total energy              =    -224.83302395 Ry
     Harris-Foulkes estimate   =    -224.83302395 Ry
     estimated scf accuracy    <          8.6E-12 Ry

     The total energy is the sum of the following terms:

     one-electron contribution =    -313.05006017 Ry
     hartree contribution      =     165.36626402 Ry
     xc contribution           =     -32.44591531 Ry
     ewald contribution        =     -44.70331250 Ry
     electric field correction =       0.00000000 Ry

     total magnetization       =     1.00 Bohr mag/cell
     absolute magnetization    =     1.02 Bohr mag/cell

     convergence has been achieved in   4 iterations
 
     Using Voronoi cells
     Adding the potential well
        Amplitude [Ry a.u.] : -3.8817E-01
        Fragment start :           1
        Fragment end   :           1
 
 
     Using Voronoi cells
     Adding the potential well
        Amplitude [Ry a.u.] : -3.8817E-01
        Fragment start :           1
        Fragment end   :           1
 
     E field correction :    4.65429461813088       Ry
     #e's   in well     :   0.980702363040912       electrons
     Surplus/deficit electrons    :    1.929763695908804E-002 electrons
     epcdft_thr                   :    1.000000000000000E-006 electrons
 
     -----------------------------------------------
 
                      SCF converged but...
 
     electron localization condition NOT satisfied
     restarting scf with different applied potential
 
     New field Amp      :  -0.487958951560583       Ry
     charge density from previous step
 
     Using Voronoi cells
     Adding the potential well
        Amplitude [Ry a.u.] : -4.8796E-01
        Fragment start :           1
        Fragment end   :           1
 

     total cpu time spent up to now is       26.1 secs

     per-process dynamical memory:    47.6 Mb

     Self-consistent Calculation

     iteration #  1     ecut=    60.00 Ry     beta=0.30
     Davidson diagonalization with overlap
     ethr =  6.40E-13,  avg # of iterations = 10.0
 
     Magnetic moment per site:
     atom:    1    charge:   11.8286    magn:    0.0067    constr:    0.0000
     atom:    2    charge:   10.9576    magn:    0.9529    constr:    0.0000

     total cpu time spent up to now is       28.6 secs

     The total energy is the sum of the following terms:

     one-electron contribution =    -314.25919699 Ry
     hartree contribution      =     165.37045723 Ry
     xc contribution           =     -32.44641915 Ry
     ewald contribution        =     -44.70331250 Ry

     total energy              =    -226.02985972 Ry
     Harris-Foulkes estimate   =    -226.02986732 Ry
     estimated scf accuracy    <       0.00002102 Ry

     total magnetization       =     1.00 Bohr mag/cell
     absolute magnetization    =     1.02 Bohr mag/cell

     iteration #  2     ecut=    60.00 Ry     beta=0.30
     Davidson diagonalization with overlap
     ethr =  9.14E-08,  avg # of iterations =  1.5
 
     Magnetic moment per site:
     atom:    1    charge:   11.8318    magn:    0.0050    constr:    0.0000
     atom:    2    charge:   10.9551    magn:    0.9537    constr:    0.0000

     total cpu time spent up to now is       29.8 secs

     The total energy is the sum of the following terms:

     one-electron contribution =    -314.25416904 Ry
     hartree contribution      =     165.37331209 Ry
     xc contribution           =     -32.44677340 Ry
     ewald contribution        =     -44.70331250 Ry

     total energy              =    -226.02985587 Ry
     Harris-Foulkes estimate   =    -226.02986030 Ry
     estimated scf accuracy    <       0.00000822 Ry

     total magnetization       =     1.00 Bohr mag/cell
     absolute magnetization    =     1.02 Bohr mag/cell

     iteration #  3     ecut=    60.00 Ry     beta=0.30
     Davidson diagonalization with overlap
     ethr =  3.57E-08,  avg # of iterations =  2.0
 
     Magnetic moment per site:
     atom:    1    charge:   11.8324    magn:    0.0044    constr:    0.0000
     atom:    2    charge:   10.9544    magn:    0.9539    constr:    0.0000

     total cpu time spent up to now is       31.1 secs

     The total energy is the sum of the following terms:

     one-electron contribution =    -314.24976795 Ry
     hartree contribution      =     165.37131748 Ry
     xc contribution           =     -32.44662779 Ry
     ewald contribution        =     -44.70331250 Ry

     total energy              =    -226.02985666 Ry
     Harris-Foulkes estimate   =    -226.02985679 Ry
     estimated scf accuracy    <       0.00000058 Ry

     total magnetization       =     1.00 Bohr mag/cell
     absolute magnetization    =     1.02 Bohr mag/cell

     iteration #  4     ecut=    60.00 Ry     beta=0.30
     Davidson diagonalization with overlap
     ethr =  2.53E-09,  avg # of iterations =  2.0
 
     Magnetic moment per site:
     atom:    1    charge:   11.8326    magn:    0.0042    constr:    0.0000
     atom:    2    charge:   10.9542    magn:    0.9541    constr:    0.0000

     total cpu time spent up to now is       32.4 secs

     The total energy is the sum of the following terms:

     one-electron contribution =    -314.25143287 Ry
     hartree contribution      =     165.37136752 Ry
     xc contribution           =     -32.44671671 Ry
     ewald contribution        =     -44.70331250 Ry

     total energy              =    -226.02985672 Ry
     Harris-Foulkes estimate   =    -226.02985671 Ry
     estimated scf accuracy    <       0.00000003 Ry

     total magnetization       =     1.00 Bohr mag/cell
     absolute magnetization    =     1.02 Bohr mag/cell

     iteration #  5     ecut=    60.00 Ry     beta=0.30
     Davidson diagonalization with overlap
     ethr =  1.38E-10,  avg # of iterations =  2.5
 
     Magnetic moment per site:
     atom:    1    charge:   11.8326    magn:    0.0042    constr:    0.0000
     atom:    2    charge:   10.9542    magn:    0.9541    constr:    0.0000

     total cpu time spent up to now is       33.8 secs

     The total energy is the sum of the following terms:

     one-electron contribution =    -314.25113255 Ry
     hartree contribution      =     165.37140988 Ry
     xc contribution           =     -32.44673826 Ry
     ewald contribution        =     -44.70331250 Ry

     total energy              =    -226.02985672 Ry
     Harris-Foulkes estimate   =    -226.02985673 Ry
     estimated scf accuracy    <          6.9E-09 Ry

     total magnetization       =     1.00 Bohr mag/cell
     absolute magnetization    =     1.02 Bohr mag/cell

     iteration #  6     ecut=    60.00 Ry     beta=0.30
     Davidson diagonalization with overlap
     ethr =  3.01E-11,  avg # of iterations =  1.0
 
     Magnetic moment per site:
     atom:    1    charge:   11.8325    magn:    0.0042    constr:    0.0000
     atom:    2    charge:   10.9542    magn:    0.9541    constr:    0.0000

     total cpu time spent up to now is       35.0 secs

     The total energy is the sum of the following terms:

     one-electron contribution =    -314.25108538 Ry
     hartree contribution      =     165.37135737 Ry
     xc contribution           =     -32.44675230 Ry
     ewald contribution        =     -44.70331250 Ry

     total energy              =    -226.02985671 Ry
     Harris-Foulkes estimate   =    -226.02985672 Ry
     estimated scf accuracy    <          2.4E-09 Ry

     total magnetization       =     1.00 Bohr mag/cell
     absolute magnetization    =     1.02 Bohr mag/cell

     iteration #  7     ecut=    60.00 Ry     beta=0.30
     Davidson diagonalization with overlap
     ethr =  1.05E-11,  avg # of iterations =  2.5
 
     Magnetic moment per site:
     atom:    1    charge:   11.8325    magn:    0.0042    constr:    0.0000
     atom:    2    charge:   10.9542    magn:    0.9541    constr:    0.0000

     total cpu time spent up to now is       36.5 secs

     The total energy is the sum of the following terms:

     one-electron contribution =    -314.25103808 Ry
     hartree contribution      =     165.37127563 Ry
     xc contribution           =     -32.44674045 Ry
     ewald contribution        =     -44.70331250 Ry

     total energy              =    -226.02985671 Ry
     Harris-Foulkes estimate   =    -226.02985671 Ry
     estimated scf accuracy    <          2.0E-10 Ry

     total magnetization       =     1.00 Bohr mag/cell
     absolute magnetization    =     1.02 Bohr mag/cell

     iteration #  8     ecut=    60.00 Ry     beta=0.30
     Davidson diagonalization with overlap
     ethr =  8.67E-13,  avg # of iterations =  2.0
 
     Magnetic moment per site:
     atom:    1    charge:   11.8325    magn:    0.0042    constr:    0.0000
     atom:    2    charge:   10.9542    magn:    0.9541    constr:    0.0000

     total cpu time spent up to now is       37.8 secs

     End of self-consistent calculation

 ------ SPIN UP ------------


          k = 0.0000 0.0000 0.0000 ( 26462 PWs)   bands (ev):

   -16.1207 -16.1081 -16.1081 -16.0805 -16.0795 -15.3378 -15.3374 -15.3365
   -15.3362 -15.3362 -12.1092 -10.1587

     occupation numbers 
     1.0000   1.0000   1.0000   1.0000   1.0000   1.0000   1.0000   1.0000
     1.0000   1.0000   1.0000   1.0000

 ------ SPIN DOWN ----------


          k = 0.0000 0.0000 0.0000 ( 26462 PWs)   bands (ev):

   -16.1191 -16.1070 -16.1070 -16.0797 -16.0788 -15.0867 -15.0850 -15.0850
   -15.0850 -15.0843 -12.1019  -8.9673

     occupation numbers 
     1.0000   1.0000   1.0000   1.0000   1.0000   1.0000   1.0000   1.0000
     1.0000   1.0000   1.0000   0.0000

     highest occupied level (ev):   -10.1587

     The total energy is the sum of the following terms:

     one-electron contribution =    -314.25110900 Ry
     hartree contribution      =     165.37130493 Ry
     xc contribution           =     -32.44674014 Ry
     ewald contribution        =     -44.70331250 Ry

!    total energy              =    -226.02985671 Ry
     Harris-Foulkes estimate   =    -226.02985671 Ry
     estimated scf accuracy    <          6.7E-11 Ry

     The total energy is the sum of the following terms:

     one-electron contribution =    -314.25110900 Ry
     hartree contribution      =     165.37130493 Ry
     xc contribution           =     -32.44674014 Ry
     ewald contribution        =     -44.70331250 Ry
     electric field correction =       0.00000000 Ry

     total magnetization       =     1.00 Bohr mag/cell
     absolute magnetization    =     1.02 Bohr mag/cell

     convergence has been achieved in   8 iterations
 
     Using Voronoi cells
     Adding the potential well
        Amplitude [Ry a.u.] : -4.8796E-01
        Fragment start :           1
        Fragment end   :           1
 
 
     Using Voronoi cells
     Adding the potential well
        Amplitude [Ry a.u.] : -4.8796E-01
        Fragment start :           1
        Fragment end   :           1
 
     E field correction :    5.85357459128821       Ry
     #e's   in well     :   0.992077909698637       electrons
     Surplus/deficit electrons    :    7.922090301363482E-003 electrons
     epcdft_thr                   :    1.000000000000000E-006 electrons
 
     -----------------------------------------------
 
                      SCF converged but...
 
     electron localization condition NOT satisfied
     restarting scf with different applied potential
 
     New field Amp      :  -0.557453377554126       Ry
     charge density from previous step
 
     Using Voronoi cells
     Adding the potential well
        Amplitude [Ry a.u.] : -5.5745E-01
        Fragment start :           1
        Fragment end   :           1
 

     total cpu time spent up to now is       38.6 secs

     per-process dynamical memory:    47.6 Mb

     Self-consistent Calculation

     iteration #  1     ecut=    60.00 Ry     beta=0.30
     Davidson diagonalization with overlap
     ethr =  8.67E-13,  avg # of iterations = 10.0
 
     Magnetic moment per site:
     atom:    1    charge:   11.8334    magn:    0.0040    constr:    0.0000
     atom:    2    charge:   10.9535    magn:    0.9538    constr:    0.0000

     total cpu time spent up to now is       41.1 secs

     The total energy is the sum of the following terms:

     one-electron contribution =    -315.08783212 Ry
     hartree contribution      =     165.37230098 Ry
     xc contribution           =     -32.44684255 Ry
     ewald contribution        =     -44.70331250 Ry

     total energy              =    -226.86360031 Ry
     Harris-Foulkes estimate   =    -226.86360194 Ry
     estimated scf accuracy    <       0.00000425 Ry

     total magnetization       =     1.00 Bohr mag/cell
     absolute magnetization    =     1.02 Bohr mag/cell

     iteration #  2     ecut=    60.00 Ry     beta=0.30
     Davidson diagonalization with overlap
     ethr =  1.85E-08,  avg # of iterations =  1.5
 
     Magnetic moment per site:
     atom:    1    charge:   11.8346    magn:    0.0038    constr:    0.0000
     atom:    2    charge:   10.9523    magn:    0.9534    constr:    0.0000

     total cpu time spent up to now is       42.3 secs

     The total energy is the sum of the following terms:

     one-electron contribution =    -315.08600311 Ry
     hartree contribution      =     165.37248813 Ry
     xc contribution           =     -32.44685058 Ry
     ewald contribution        =     -44.70331250 Ry

     total energy              =    -226.86359944 Ry
     Harris-Foulkes estimate   =    -226.86360043 Ry
     estimated scf accuracy    <       0.00000166 Ry

     total magnetization       =     1.00 Bohr mag/cell
     absolute magnetization    =     1.02 Bohr mag/cell

     iteration #  3     ecut=    60.00 Ry     beta=0.30
     Davidson diagonalization with overlap
     ethr =  7.23E-09,  avg # of iterations =  2.0
 
     Magnetic moment per site:
     atom:    1    charge:   11.8349    magn:    0.0037    constr:    0.0000
     atom:    2    charge:   10.9520    magn:    0.9533    constr:    0.0000

     total cpu time spent up to now is       43.5 secs

     The total energy is the sum of the following terms:

     one-electron contribution =    -315.08449224 Ry
     hartree contribution      =     165.37157421 Ry
     xc contribution           =     -32.44678071 Ry
     ewald contribution        =     -44.70331250 Ry

     total energy              =    -226.86359958 Ry
     Harris-Foulkes estimate   =    -226.86359962 Ry
     estimated scf accuracy    <       0.00000012 Ry

     total magnetization       =     1.00 Bohr mag/cell
     absolute magnetization    =     1.02 Bohr mag/cell

     iteration #  4     ecut=    60.00 Ry     beta=0.30
     Davidson diagonalization with overlap
     ethr =  5.19E-10,  avg # of iterations =  2.0
 
     Magnetic moment per site:
     atom:    1    charge:   11.8350    magn:    0.0037    constr:    0.0000
     atom:    2    charge:   10.9519    magn:    0.9532    constr:    0.0000

     total cpu time spent up to now is       44.8 secs

     The total energy is the sum of the following terms:

     one-electron contribution =    -315.08511882 Ry
     hartree contribution      =     165.37153139 Ry
     xc contribution           =     -32.44680733 Ry
     ewald contribution        =     -44.70331250 Ry

     total energy              =    -226.86359959 Ry
     Harris-Foulkes estimate   =    -226.86359959 Ry
     estimated scf accuracy    <          5.9E-09 Ry

     total magnetization       =     1.00 Bohr mag/cell
     absolute magnetization    =     1.02 Bohr mag/cell

     iteration #  5     ecut=    60.00 Ry     beta=0.30
     Davidson diagonalization with overlap
     ethr =  2.58E-11,  avg # of iterations =  2.5
 
     Magnetic moment per site:
     atom:    1    charge:   11.8350    magn:    0.0037    constr:    0.0000
     atom:    2    charge:   10.9519    magn:    0.9532    constr:    0.0000

     total cpu time spent up to now is       46.1 secs

     The total energy is the sum of the following terms:

     one-electron contribution =    -315.08499067 Ry
     hartree contribution      =     165.37155053 Ry
     xc contribution           =     -32.44681512 Ry
     ewald contribution        =     -44.70331250 Ry

     total energy              =    -226.86359959 Ry
     Harris-Foulkes estimate   =    -226.86359959 Ry
     estimated scf accuracy    <          1.3E-09 Ry

     total magnetization       =     1.00 Bohr mag/cell
     absolute magnetization    =     1.02 Bohr mag/cell

     iteration #  6     ecut=    60.00 Ry     beta=0.30
     Davidson diagonalization with overlap
     ethr =  5.74E-12,  avg # of iterations =  1.0
 
     Magnetic moment per site:
     atom:    1    charge:   11.8350    magn:    0.0037    constr:    0.0000
     atom:    2    charge:   10.9519    magn:    0.9533    constr:    0.0000

     total cpu time spent up to now is       47.4 secs

     The total energy is the sum of the following terms:

     one-electron contribution =    -315.08497527 Ry
     hartree contribution      =     165.37154071 Ry
     xc contribution           =     -32.44682161 Ry
     ewald contribution        =     -44.70331250 Ry

     total energy              =    -226.86359958 Ry
     Harris-Foulkes estimate   =    -226.86359959 Ry
     estimated scf accuracy    <          5.3E-10 Ry

     total magnetization       =     1.00 Bohr mag/cell
     absolute magnetization    =     1.02 Bohr mag/cell

     iteration #  7     ecut=    60.00 Ry     beta=0.30
     Davidson diagonalization with overlap
     ethr =  2.28E-12,  avg # of iterations =  2.5
 
     Magnetic moment per site:
     atom:    1    charge:   11.8350    magn:    0.0037    constr:    0.0000
     atom:    2    charge:   10.9519    magn:    0.9533    constr:    0.0000

     total cpu time spent up to now is       48.7 secs

     End of self-consistent calculation

 ------ SPIN UP ------------


          k = 0.0000 0.0000 0.0000 ( 26462 PWs)   bands (ev):

   -17.0480 -17.0354 -17.0354 -17.0080 -17.0071 -15.3565 -15.3562 -15.3552
   -15.3549 -15.3549 -13.0362 -10.1797

     occupation numbers 
     1.0000   1.0000   1.0000   1.0000   1.0000   1.0000   1.0000   1.0000
     1.0000   1.0000   1.0000   1.0000

 ------ SPIN DOWN ----------


          k = 0.0000 0.0000 0.0000 ( 26462 PWs)   bands (ev):

   -17.0466 -17.0345 -17.0345 -17.0074 -17.0065 -15.1059 -15.1041 -15.1041
   -15.1038 -15.1031 -13.0305  -8.9883

     occupation numbers 
     1.0000   1.0000   1.0000   1.0000   1.0000   1.0000   1.0000   1.0000
     1.0000   1.0000   1.0000   0.0000

     highest occupied level (ev):   -10.1797

     The total energy is the sum of the following terms:

     one-electron contribution =    -315.08494171 Ry
     hartree contribution      =     165.37146386 Ry
     xc contribution           =     -32.44680924 Ry
     ewald contribution        =     -44.70331250 Ry

!    total energy              =    -226.86359958 Ry
     Harris-Foulkes estimate   =    -226.86359958 Ry
     estimated scf accuracy    <          2.4E-11 Ry

     The total energy is the sum of the following terms:

     one-electron contribution =    -315.08494171 Ry
     hartree contribution      =     165.37146386 Ry
     xc contribution           =     -32.44680924 Ry
     ewald contribution        =     -44.70331250 Ry
     electric field correction =       0.00000000 Ry

     total magnetization       =     1.00 Bohr mag/cell
     absolute magnetization    =     1.02 Bohr mag/cell

     convergence has been achieved in   7 iterations
 
     Using Voronoi cells
     Adding the potential well
        Amplitude [Ry a.u.] : -5.5745E-01
        Fragment start :           1
        Fragment end   :           1
 
 
     Using Voronoi cells
     Adding the potential well
        Amplitude [Ry a.u.] : -5.5745E-01
        Fragment start :           1
        Fragment end   :           1
 
     E field correction :    6.68856369023142       Ry
     #e's   in well     :   0.996854121067956       electrons
     Surplus/deficit electrons    :    3.145878932043544E-003 electrons
     epcdft_thr                   :    1.000000000000000E-006 electrons
 
     -----------------------------------------------
 
                      SCF converged but...
 
     electron localization condition NOT satisfied
     restarting scf with different applied potential
 
     New field Amp      :  -0.603226278651397       Ry
     charge density from previous step
 
     Using Voronoi cells
     Adding the potential well
        Amplitude [Ry a.u.] : -6.0323E-01
        Fragment start :           1
        Fragment end   :           1
 

     total cpu time spent up to now is       49.6 secs

     per-process dynamical memory:    47.6 Mb

     Self-consistent Calculation

     iteration #  1     ecut=    60.00 Ry     beta=0.30
     Davidson diagonalization with overlap
     ethr =  2.28E-12,  avg # of iterations =  8.5
 
     Magnetic moment per site:
     atom:    1    charge:   11.8354    magn:    0.0037    constr:    0.0000
     atom:    2    charge:   10.9514    magn:    0.9529    constr:    0.0000

     total cpu time spent up to now is       51.9 secs

     The total energy is the sum of the following terms:

     one-electron contribution =    -315.63398971 Ry
     hartree contribution      =     165.37138999 Ry
     xc contribution           =     -32.44679225 Ry
     ewald contribution        =     -44.70331250 Ry

     total energy              =    -227.41283697 Ry
     Harris-Foulkes estimate   =    -227.41283765 Ry
     estimated scf accuracy    <       0.00000169 Ry

     total magnetization       =     1.00 Bohr mag/cell
     absolute magnetization    =     1.02 Bohr mag/cell

     iteration #  2     ecut=    60.00 Ry     beta=0.30
     Davidson diagonalization with overlap
     ethr =  7.36E-09,  avg # of iterations =  1.0
 
     Magnetic moment per site:
     atom:    1    charge:   11.8362    magn:    0.0037    constr:    0.0000
     atom:    2    charge:   10.9506    magn:    0.9524    constr:    0.0000

     total cpu time spent up to now is       53.1 secs

     The total energy is the sum of the following terms:

     one-electron contribution =    -315.63325186 Ry
     hartree contribution      =     165.37068929 Ry
     xc contribution           =     -32.44670778 Ry
     ewald contribution        =     -44.70331250 Ry

     total energy              =    -227.41283657 Ry
     Harris-Foulkes estimate   =    -227.41283701 Ry
     estimated scf accuracy    <       0.00000068 Ry

     total magnetization       =     1.00 Bohr mag/cell
     absolute magnetization    =     1.02 Bohr mag/cell

     iteration #  3     ecut=    60.00 Ry     beta=0.30
     Davidson diagonalization with overlap
     ethr =  2.94E-09,  avg # of iterations =  2.0
 
     Magnetic moment per site:
     atom:    1    charge:   11.8363    magn:    0.0037    constr:    0.0000
     atom:    2    charge:   10.9505    magn:    0.9523    constr:    0.0000

     total cpu time spent up to now is       54.4 secs

     The total energy is the sum of the following terms:

     one-electron contribution =    -315.63259792 Ry
     hartree contribution      =     165.37011524 Ry
     xc contribution           =     -32.44667120 Ry
     ewald contribution        =     -44.70331250 Ry

     total energy              =    -227.41283663 Ry
     Harris-Foulkes estimate   =    -227.41283665 Ry
     estimated scf accuracy    <       0.00000005 Ry

     total magnetization       =     1.00 Bohr mag/cell
     absolute magnetization    =     1.02 Bohr mag/cell

     iteration #  4     ecut=    60.00 Ry     beta=0.30
     Davidson diagonalization with overlap
     ethr =  2.00E-10,  avg # of iterations =  2.0
 
     Magnetic moment per site:
     atom:    1    charge:   11.8363    magn:    0.0037    constr:    0.0000
     atom:    2    charge:   10.9504    magn:    0.9522    constr:    0.0000

     total cpu time spent up to now is       55.8 secs

     The total energy is the sum of the following terms:

     one-electron contribution =    -315.63296381 Ry
     hartree contribution      =     165.37003654 Ry
     xc contribution           =     -32.44668218 Ry
     ewald contribution        =     -44.70331250 Ry

     total energy              =    -227.41283662 Ry
     Harris-Foulkes estimate   =    -227.41283663 Ry
     estimated scf accuracy    <          3.2E-09 Ry

     total magnetization       =     1.00 Bohr mag/cell
     absolute magnetization    =     1.02 Bohr mag/cell

     iteration #  5     ecut=    60.00 Ry     beta=0.30
     Davidson diagonalization with overlap
     ethr =  1.37E-11,  avg # of iterations =  2.5
 
     Magnetic moment per site:
     atom:    1    charge:   11.8363    magn:    0.0037    constr:    0.0000
     atom:    2    charge:   10.9504    magn:    0.9522    constr:    0.0000

     total cpu time spent up to now is       57.0 secs

     The total energy is the sum of the following terms:

     one-electron contribution =    -315.63288197 Ry
     hartree contribution      =     165.37005986 Ry
     xc contribution           =     -32.44668969 Ry
     ewald contribution        =     -44.70331250 Ry

     total energy              =    -227.41283662 Ry
     Harris-Foulkes estimate   =    -227.41283662 Ry
     estimated scf accuracy    <          6.1E-10 Ry

     total magnetization       =     1.00 Bohr mag/cell
     absolute magnetization    =     1.02 Bohr mag/cell

     iteration #  6     ecut=    60.00 Ry     beta=0.30
     Davidson diagonalization with overlap
     ethr =  2.64E-12,  avg # of iterations =  2.0
 
     Magnetic moment per site:
     atom:    1    charge:   11.8363    magn:    0.0037    constr:    0.0000
     atom:    2    charge:   10.9504    magn:    0.9522    constr:    0.0000

     total cpu time spent up to now is       58.3 secs

     The total energy is the sum of the following terms:

     one-electron contribution =    -315.63285352 Ry
     hartree contribution      =     165.37003880 Ry
     xc contribution           =     -32.44668972 Ry
     ewald contribution        =     -44.70331250 Ry

     total energy              =    -227.41283662 Ry
     Harris-Foulkes estimate   =    -227.41283662 Ry
     estimated scf accuracy    <          1.6E-10 Ry

     total magnetization       =     1.00 Bohr mag/cell
     absolute magnetization    =     1.02 Bohr mag/cell

     iteration #  7     ecut=    60.00 Ry     beta=0.30
     Davidson diagonalization with overlap
     ethr =  6.83E-13,  avg # of iterations =  2.0
 
     Magnetic moment per site:
     atom:    1    charge:   11.8363    magn:    0.0037    constr:    0.0000
     atom:    2    charge:   10.9504    magn:    0.9522    constr:    0.0000

     total cpu time spent up to now is       59.5 secs

     End of self-consistent calculation

 ------ SPIN UP ------------


          k = 0.0000 0.0000 0.0000 ( 26462 PWs)   bands (ev):

   -17.6602 -17.6477 -17.6477 -17.6203 -17.6194 -15.3695 -15.3691 -15.3681
   -15.3678 -15.3678 -13.6487 -10.1933

     occupation numbers 
     1.0000   1.0000   1.0000   1.0000   1.0000   1.0000   1.0000   1.0000
     1.0000   1.0000   1.0000   1.0000

 ------ SPIN DOWN ----------


          k = 0.0000 0.0000 0.0000 ( 26462 PWs)   bands (ev):

   -17.6588 -17.6468 -17.6468 -17.6198 -17.6189 -15.1193 -15.1174 -15.1174
   -15.1169 -15.1162 -13.6433  -9.0039

     occupation numbers 
     1.0000   1.0000   1.0000   1.0000   1.0000   1.0000   1.0000   1.0000
     1.0000   1.0000   1.0000   0.0000

     highest occupied level (ev):   -10.1933

     The total energy is the sum of the following terms:

     one-electron contribution =    -315.63285409 Ry
     hartree contribution      =     165.37001646 Ry
     xc contribution           =     -32.44668649 Ry
     ewald contribution        =     -44.70331250 Ry

!    total energy              =    -227.41283662 Ry
     Harris-Foulkes estimate   =    -227.41283662 Ry
     estimated scf accuracy    <          6.2E-12 Ry

     The total energy is the sum of the following terms:

     one-electron contribution =    -315.63285409 Ry
     hartree contribution      =     165.37001646 Ry
     xc contribution           =     -32.44668649 Ry
     ewald contribution        =     -44.70331250 Ry
     electric field correction =       0.00000000 Ry

     total magnetization       =     1.00 Bohr mag/cell
     absolute magnetization    =     1.02 Bohr mag/cell

     convergence has been achieved in   7 iterations
 
     Using Voronoi cells
     Adding the potential well
        Amplitude [Ry a.u.] : -6.0323E-01
        Fragment start :           1
        Fragment end   :           1
 
 
     Using Voronoi cells
     Adding the potential well
        Amplitude [Ry a.u.] : -6.0323E-01
        Fragment start :           1
        Fragment end   :           1
 
     E field correction :    7.23867444661764       Ry
     #e's   in well     :   0.999864405114241       electrons
     Surplus/deficit electrons    :    1.355948857586498E-004 electrons
     epcdft_thr                   :    1.000000000000000E-006 electrons
 
     -----------------------------------------------
 
                      SCF converged but...
 
     electron localization condition NOT satisfied
     restarting scf with different applied potential
 
     New field Amp      :  -0.605288067904403       Ry
     charge density from previous step
 
     Using Voronoi cells
     Adding the potential well
        Amplitude [Ry a.u.] : -6.0529E-01
        Fragment start :           1
        Fragment end   :           1
 

     total cpu time spent up to now is       60.3 secs

     per-process dynamical memory:    47.6 Mb

     Self-consistent Calculation

     iteration #  1     ecut=    60.00 Ry     beta=0.30
     Davidson diagonalization with overlap
     ethr =  6.83E-13,  avg # of iterations =  7.0
 
     Magnetic moment per site:
     atom:    1    charge:   11.8363    magn:    0.0037    constr:    0.0000
     atom:    2    charge:   10.9504    magn:    0.9522    constr:    0.0000

     total cpu time spent up to now is       62.2 secs

     The total energy is the sum of the following terms:

     one-electron contribution =    -315.65756022 Ry
     hartree contribution      =     165.37000425 Ry
     xc contribution           =     -32.44668487 Ry
     ewald contribution        =     -44.70331250 Ry

     total energy              =    -227.43757803 Ry
     Harris-Foulkes estimate   =    -227.43757803 Ry
     estimated scf accuracy    <          3.6E-09 Ry

     total magnetization       =     1.00 Bohr mag/cell
     absolute magnetization    =     1.02 Bohr mag/cell

     iteration #  2     ecut=    60.00 Ry     beta=0.30
     Davidson diagonalization with overlap
     ethr =  1.57E-11,  avg # of iterations =  1.0
 
     Magnetic moment per site:
     atom:    1    charge:   11.8364    magn:    0.0037    constr:    0.0000
     atom:    2    charge:   10.9503    magn:    0.9522    constr:    0.0000

     total cpu time spent up to now is       63.4 secs

     The total energy is the sum of the following terms:

     one-electron contribution =    -315.65752790 Ry
     hartree contribution      =     165.36995880 Ry
     xc contribution           =     -32.44667983 Ry
     ewald contribution        =     -44.70331250 Ry

     total energy              =    -227.43757802 Ry
     Harris-Foulkes estimate   =    -227.43757803 Ry
     estimated scf accuracy    <          1.4E-09 Ry

     total magnetization       =     1.00 Bohr mag/cell
     absolute magnetization    =     1.02 Bohr mag/cell

     iteration #  3     ecut=    60.00 Ry     beta=0.30
     Davidson diagonalization with overlap
     ethr =  6.29E-12,  avg # of iterations =  2.0
 
     Magnetic moment per site:
     atom:    1    charge:   11.8364    magn:    0.0037    constr:    0.0000
     atom:    2    charge:   10.9503    magn:    0.9522    constr:    0.0000

     total cpu time spent up to now is       64.6 secs

     End of self-consistent calculation

 ------ SPIN UP ------------


          k = 0.0000 0.0000 0.0000 ( 26462 PWs)   bands (ev):

   -17.6878 -17.6753 -17.6753 -17.6479 -17.6470 -15.3701 -15.3696 -15.3687
   -15.3684 -15.3684 -13.6763 -10.1939

     occupation numbers 
     1.0000   1.0000   1.0000   1.0000   1.0000   1.0000   1.0000   1.0000
     1.0000   1.0000   1.0000   1.0000

 ------ SPIN DOWN ----------


          k = 0.0000 0.0000 0.0000 ( 26462 PWs)   bands (ev):

   -17.6864 -17.6744 -17.6744 -17.6474 -17.6465 -15.1199 -15.1180 -15.1180
   -15.1175 -15.1168 -13.6709  -9.0046

     occupation numbers 
     1.0000   1.0000   1.0000   1.0000   1.0000   1.0000   1.0000   1.0000
     1.0000   1.0000   1.0000   0.0000

     highest occupied level (ev):   -10.1939

     The total energy is the sum of the following terms:

     one-electron contribution =    -315.65750227 Ry
     hartree contribution      =     165.36991387 Ry
     xc contribution           =     -32.44667713 Ry
     ewald contribution        =     -44.70331250 Ry

!    total energy              =    -227.43757802 Ry
     Harris-Foulkes estimate   =    -227.43757802 Ry
     estimated scf accuracy    <          9.9E-11 Ry

     The total energy is the sum of the following terms:

     one-electron contribution =    -315.65750227 Ry
     hartree contribution      =     165.36991387 Ry
     xc contribution           =     -32.44667713 Ry
     ewald contribution        =     -44.70331250 Ry
     electric field correction =       0.00000000 Ry

     total magnetization       =     1.00 Bohr mag/cell
     absolute magnetization    =     1.02 Bohr mag/cell

     convergence has been achieved in   3 iterations
 
     Using Voronoi cells
     Adding the potential well
        Amplitude [Ry a.u.] : -6.0529E-01
        Fragment start :           1
        Fragment end   :           1
 
 
     Using Voronoi cells
     Adding the potential well
        Amplitude [Ry a.u.] : -6.0529E-01
        Fragment start :           1
        Fragment end   :           1
 
     E field correction :    7.26345798588768       Ry
     #e's   in well     :    1.00000386934637       electrons
     Surplus/deficit electrons    :   -3.869346372198379E-006 electrons
     epcdft_thr                   :    1.000000000000000E-006 electrons
 
     -----------------------------------------------
 
                      SCF converged but...
 
     electron localization condition NOT satisfied
     restarting scf with different applied potential
 
     New field Amp      :  -0.605230864873601       Ry
     charge density from previous step
 
     Using Voronoi cells
     Adding the potential well
        Amplitude [Ry a.u.] : -6.0523E-01
        Fragment start :           1
        Fragment end   :           1
 

     total cpu time spent up to now is       65.4 secs

     per-process dynamical memory:    47.6 Mb

     Self-consistent Calculation

     iteration #  1     ecut=    60.00 Ry     beta=0.30
     Davidson diagonalization with overlap
     ethr =  6.29E-12,  avg # of iterations =  2.0

     Threshold (ethr) on eigenvalues was too large:
     Diagonalizing with lowered threshold

     Davidson diagonalization with overlap
     ethr =  9.87E-14,  avg # of iterations =  2.5
 
     Magnetic moment per site:
     atom:    1    charge:   11.8364    magn:    0.0037    constr:    0.0000
     atom:    2    charge:   10.9503    magn:    0.9522    constr:    0.0000

     total cpu time spent up to now is       67.4 secs

     End of self-consistent calculation

 ------ SPIN UP ------------


          k = 0.0000 0.0000 0.0000 ( 26462 PWs)   bands (ev):

   -17.6871 -17.6745 -17.6745 -17.6472 -17.6463 -15.3701 -15.3697 -15.3687
   -15.3684 -15.3684 -13.6755 -10.1939

     occupation numbers 
     1.0000   1.0000   1.0000   1.0000   1.0000   1.0000   1.0000   1.0000
     1.0000   1.0000   1.0000   1.0000

 ------ SPIN DOWN ----------


          k = 0.0000 0.0000 0.0000 ( 26462 PWs)   bands (ev):

   -17.6857 -17.6737 -17.6737 -17.6467 -17.6458 -15.1199 -15.1180 -15.1180
   -15.1175 -15.1168 -13.6701  -9.0047

     occupation numbers 
     1.0000   1.0000   1.0000   1.0000   1.0000   1.0000   1.0000   1.0000
     1.0000   1.0000   1.0000   0.0000

     highest occupied level (ev):   -10.1939

     The total energy is the sum of the following terms:

     one-electron contribution =    -315.65684583 Ry
     hartree contribution      =     165.36994844 Ry
     xc contribution           =     -32.44668169 Ry
     ewald contribution        =     -44.70331250 Ry

!    total energy              =    -227.43689159 Ry
     Harris-Foulkes estimate   =    -227.43689159 Ry
     estimated scf accuracy    <          2.3E-11 Ry

     The total energy is the sum of the following terms:

     one-electron contribution =    -315.65684583 Ry
     hartree contribution      =     165.36994844 Ry
     xc contribution           =     -32.44668169 Ry
     ewald contribution        =     -44.70331250 Ry
     electric field correction =       0.00000000 Ry

     total magnetization       =     1.00 Bohr mag/cell
     absolute magnetization    =     1.02 Bohr mag/cell

     convergence has been achieved in   1 iterations
 
     Using Voronoi cells
     Adding the potential well
        Amplitude [Ry a.u.] : -6.0523E-01
        Fragment start :           1
        Fragment end   :           1
 
 
     Using Voronoi cells
     Adding the potential well
        Amplitude [Ry a.u.] : -6.0523E-01
        Fragment start :           1
        Fragment end   :           1
 
     E field correction :    7.26277027907001       Ry
     #e's   in well     :   0.999999671487197       electrons

     Writing output data file zn.save
 
     init_run     :      1.33s CPU      1.39s WALL (       1 calls)
     electrons    :     60.24s CPU     62.21s WALL (       7 calls)
     update_pot   :      2.77s CPU      2.94s WALL (       6 calls)

     Called by init_run:
     wfcinit      :      0.57s CPU      0.58s WALL (       1 calls)
     potinit      :      0.52s CPU      0.56s WALL (       1 calls)

     Called by electrons:
     c_bands      :     28.05s CPU     28.84s WALL (      43 calls)
     sum_band     :      8.41s CPU      8.73s WALL (      43 calls)
     v_of_rho     :     21.11s CPU     21.73s WALL (      49 calls)
     v_h          :      1.00s CPU      1.05s WALL (      49 calls)
     v_xc         :     20.09s CPU     20.65s WALL (      49 calls)
     mix_rho      :      3.61s CPU      3.72s WALL (      43 calls)

     Called by c_bands:
     init_us_2    :      0.58s CPU      0.64s WALL (     174 calls)
     regterg      :     26.80s CPU     27.42s WALL (      86 calls)

     Called by sum_band:

     Called by *egterg:
     h_psi        :     24.83s CPU     25.37s WALL (     335 calls)
     g_psi        :      0.09s CPU      0.10s WALL (     247 calls)
     rdiaghg      :      0.33s CPU      0.36s WALL (     319 calls)
     regterg:over :      0.50s CPU      0.48s WALL (     247 calls)
     regterg:upda :      0.74s CPU      0.75s WALL (     247 calls)
     regterg:last :      0.18s CPU      0.20s WALL (      97 calls)
     rdiaghg:chol :      0.02s CPU      0.04s WALL (     319 calls)
     rdiaghg:inve :      0.01s CPU      0.01s WALL (     319 calls)
     rdiaghg:para :      0.02s CPU      0.03s WALL (     638 calls)

     Called by h_psi:
     h_psi:vloc   :     23.58s CPU     24.04s WALL (     335 calls)
     h_psi:vnl    :      1.14s CPU      1.22s WALL (     335 calls)
     add_vuspsi   :      0.38s CPU      0.40s WALL (     335 calls)

     General routines
     calbec       :      0.76s CPU      0.82s WALL (     335 calls)
     fft          :     13.64s CPU     14.12s WALL (    1000 calls)
     fftw         :     22.65s CPU     23.07s WALL (    3516 calls)
     davcio       :      0.00s CPU      0.01s WALL (       2 calls)
 
     Parallel routines
     fft_scatter  :     19.41s CPU     19.86s WALL (    4516 calls)
 
     PWSCF        :  1m 5.27s CPU     1m 7.87s WALL

 
   This run was terminated on:  14:18:43  12Jun2015            

=------------------------------------------------------------------------------=
   JOB DONE.
=------------------------------------------------------------------------------=
