2015-08-22 22:05:48.442 (INFO ) [0xfffb5fdc410] ibm.runjob.AbstractOptions: using properties file /bgsys/local/etc/bg.properties
2015-08-22 22:05:48.449 (INFO ) [0xfffb5fdc410] ibm.runjob.AbstractOptions: max open file descriptors: 65536
2015-08-22 22:05:48.449 (INFO ) [0xfffb5fdc410] ibm.runjob.AbstractOptions: core file limit: 18446744073709551615
2015-08-22 22:05:48.450 (INFO ) [0xfffb5fdc410] 13879:tatu.runjob.client: scheduler job id is 567207
2015-08-22 22:05:48.455 (INFO ) [0xfff94a234e0] 13879:tatu.runjob.monitor: monitor started
2015-08-22 22:05:52.383 (INFO ) [0xfff94a234e0] 13879:tatu.runjob.monitor: task record 1236885 created
2015-08-22 22:05:52.384 (INFO ) [0xfffb5fdc410] CET-20040-31371-128:13879:ibm.runjob.client.options.Parser: set local socket to runjob_mux from properties file
2015-08-22 22:05:55.259 (INFO ) [0xfffb5fdc410] CET-20040-31371-128:1295656:ibm.runjob.client.Job: job 1295656 started

     Program PWSCF v.5.1.1 starts on 22Aug2015 at 22: 5:55 

     This program is part of the open-source Quantum ESPRESSO suite
     for quantum simulation of materials; please cite
         "P. Giannozzi et al., J. Phys.:Condens. Matter 21 395502 (2009);
          URL http://www.quantum-espresso.org", 
     in publications or presentations arising from this work. More details at
     http://www.quantum-espresso.org/quote

     Parallel version (MPI & OpenMP), running on    1024 processor cores
     Number of MPI processes:              1024
     Threads/MPI process:                     1
     R & G space division:  proc/nbgrp/npool/nimage =    1024
     Waiting for input...
     Reading input from standard input

     Current dimensions of program PWSCF are:
     Max number of different atomic species (ntypx) = 10
     Max number of k-points (npk) =  40000
     Max angular momentum in pseudopotentials (lmaxx) =  3
               file C.pbe-mt_fhi.UPF: wavefunction(s)  4f renormalized
               file H.pbe-mt_fhi.UPF: wavefunction(s)  2p 4f renormalized
               file Cl.pbe-mt_fhi.UPF: wavefunction(s)  4f renormalized

     gamma-point specific algorithms are used
     Message from routine setup:
     the system is metallic, specify occupations

     Subspace diagonalization in iterative solution of the eigenvalue problem:
     scalapack distributed-memory algorithm (size of sub-group: 22* 22 procs)

 
     Parallelization info
     --------------------
     sticks:   dense  smooth     PW     G-vecs:    dense   smooth      PW
     Min          38      38      8                 6028     6028     700
     Max          42      42     10                 6104     6104     786
     Sum       40945   40945  10229              6227117  6227117  778439
     Tot       20473   20473   5115
 
     Generating pointlists ...
     new r_m :   0.0224 (alat units)  0.8450 (a.u.) for type    1
     new r_m :   0.0224 (alat units)  0.8450 (a.u.) for type    2
     new r_m :   0.0635 (alat units)  2.4011 (a.u.) for type    3
2015-08-22 22:06:01.662 (INFO ) [0xfff94a234e0] 13879:tatu.runjob.monitor: tracklib completed


     bravais-lattice index     =            1
     lattice parameter (alat)  =      37.7945  a.u.
     unit-cell volume          =   53986.6767 (a.u.)^3
     number of atoms/cell      =           13
     number of atomic types    =            3
     number of electrons       =        37.00 (up:  19.00, down:  18.00)
     number of Kohn-Sham states=           40
     kinetic-energy cutoff     =      90.0000  Ry
     charge density cutoff     =     360.0000  Ry
     convergence threshold     =      1.0E-12
     mixing beta               =       0.7000
     number of iterations used =            8  plain     mixing
     Exchange-correlation      = PBE ( 1  4  3  4 0 0)
     Assuming isolated system, Martyna-Tuckerman method


     celldm(1)=  37.794523  celldm(2)=   0.000000  celldm(3)=   0.000000
     celldm(4)=   0.000000  celldm(5)=   0.000000  celldm(6)=   0.000000

     crystal axes: (cart. coord. in units of alat)
               a(1) = (   1.000000   0.000000   0.000000 )  
               a(2) = (   0.000000   1.000000   0.000000 )  
               a(3) = (   0.000000   0.000000   1.000000 )  

     reciprocal axes: (cart. coord. in units 2 pi/alat)
               b(1) = (  1.000000  0.000000  0.000000 )  
               b(2) = (  0.000000  1.000000  0.000000 )  
               b(3) = (  0.000000  0.000000  1.000000 )  


     PseudoPot. # 1 for  C read from file:
     ./C.pbe-mt_fhi.UPF
     MD5 check sum: 058ca341f9d6d5327d9962fd88a91b65
     Pseudo is Norm-conserving, Zval =  4.0
     Generated using FHI98PP, converted with fhi2upf.x v.5.0.2
     Using radial grid of  461 points,  3 beta functions with: 
                l(1) =   0
                l(2) =   1
                l(3) =   3

     PseudoPot. # 2 for  H read from file:
     ./H.pbe-mt_fhi.UPF
     MD5 check sum: a19bd5488733b3d98581df861506e80d
     Pseudo is Norm-conserving, Zval =  1.0
     Generated using FHI98PP, converted with fhi2upf.x v.5.0.2
     Using radial grid of  387 points,  3 beta functions with: 
                l(1) =   0
                l(2) =   1
                l(3) =   3

     PseudoPot. # 3 for Cl read from file:
     ./Cl.pbe-mt_fhi.UPF
     MD5 check sum: 2690b95bbfe21454a1a3af22474751ef
     Pseudo is Norm-conserving, Zval =  7.0
     Generated using FHI98PP, converted with fhi2upf.x v.5.0.2
     Using radial grid of  503 points,  3 beta functions with: 
                l(1) =   0
                l(2) =   1
                l(3) =   3

     atomic species   valence    mass     pseudopotential
        C              4.00    12.01070      C( 1.00)
        H              1.00     1.00794      H( 1.00)
        Cl             7.00     1.00000     Cl( 1.00)

     Starting magnetic structure 
     atomic species   magnetization
        C            0.000
        H            0.000
        Cl           0.000

     No symmetry found


                                    s                        frac. trans.

      isym =  1     identity                                     

 cryst.   s( 1) = (     1          0          0      )
                  (     0          1          0      )
                  (     0          0          1      )

 cart.    s( 1) = (  1.0000000  0.0000000  0.0000000 )
                  (  0.0000000  1.0000000  0.0000000 )
                  (  0.0000000  0.0000000  1.0000000 )


     point group C_1 (1)    
     there are  1 classes
     the character table:

       E    
A      1.00

     the symmetry operations in each class:
     E        1

   Cartesian axes

     site n.     atom                  positions (alat units)
         1           C   tau(   1) = (   0.0000000   0.0698500   0.0000000  )
         2           C   tau(   2) = (   0.0604900   0.0349250   0.0000000  )
         3           C   tau(   3) = (   0.0604900  -0.0349250   0.0000000  )
         4           C   tau(   4) = (   0.0000000  -0.0698500   0.0000000  )
         5           C   tau(   5) = (  -0.0604900  -0.0349250   0.0000000  )
         6           C   tau(   6) = (  -0.0604900   0.0349250   0.0000000  )
         7           H   tau(   7) = (   0.0000000   0.1240500   0.0000000  )
         8           H   tau(   8) = (   0.1074300   0.0620250   0.0000000  )
         9           H   tau(   9) = (   0.1074300  -0.0620250   0.0000000  )
        10           H   tau(  10) = (   0.0000000  -0.1240500   0.0000000  )
        11           H   tau(  11) = (  -0.1074300  -0.0620250   0.0000000  )
        12           H   tau(  12) = (  -0.1074300   0.0620250   0.0000000  )
        13           Cl  tau(  13) = (   0.0302450   0.0523875   0.1500000  )

   Crystallographic axes

     site n.     atom                  positions (cryst. coord.)
         1           C   tau(   1) = (  0.0000000  0.0698500  0.0000000  )
         2           C   tau(   2) = (  0.0604900  0.0349250  0.0000000  )
         3           C   tau(   3) = (  0.0604900 -0.0349250  0.0000000  )
         4           C   tau(   4) = (  0.0000000 -0.0698500  0.0000000  )
         5           C   tau(   5) = ( -0.0604900 -0.0349250  0.0000000  )
         6           C   tau(   6) = ( -0.0604900  0.0349250  0.0000000  )
         7           H   tau(   7) = (  0.0000000  0.1240500  0.0000000  )
         8           H   tau(   8) = (  0.1074300  0.0620250  0.0000000  )
         9           H   tau(   9) = (  0.1074300 -0.0620250  0.0000000  )
        10           H   tau(  10) = (  0.0000000 -0.1240500  0.0000000  )
        11           H   tau(  11) = ( -0.1074300 -0.0620250  0.0000000  )
        12           H   tau(  12) = ( -0.1074300  0.0620250  0.0000000  )
        13           Cl  tau(  13) = (  0.0302450  0.0523875  0.1500000  )

     number of k points=     2
                       cart. coord. in units 2pi/alat
        k(    1) = (   0.0000000   0.0000000   0.0000000), wk =   1.0000000
        k(    2) = (   0.0000000   0.0000000   0.0000000), wk =   1.0000000

                       cryst. coord.
        k(    1) = (   0.0000000   0.0000000   0.0000000), wk =   1.0000000
        k(    2) = (   0.0000000   0.0000000   0.0000000), wk =   1.0000000

     Dense  grid:  3113559 G-vectors     FFT dimensions: ( 240, 240, 240)

     Largest allocated arrays     est. size (Mb)     dimensions
        Kohn-Sham Wavefunctions         0.24 Mb     (     389,   40)
        NL pseudopotentials             0.85 Mb     (     389,  143)
        Each V/rho on FFT grid          1.76 Mb     (   57600,   2)
        Each G-vector array             0.02 Mb     (    3052)
        G-vector shells                 0.01 Mb     (    1437)
     Largest temporary arrays     est. size (Mb)     dimensions
        Each subspace H/S matrix        0.00 Mb     (       1,    1)
        Each <psi_i|beta_j> matrix      0.04 Mb     (     143,   40)
        Arrays for rho mixing           7.03 Mb     (   57600,    8)
 
     Using Hirshfeld
        Amplitude [Ry a.u.] :  1.1821E-01
        Acceptor Fragment start :          13
        Acceptor Fragment end   :          13
        Donor Fragment start :           1
        Donor Fragment end   :          12
 

     Initial potential from superposition of free atoms
     Check: negative starting charge=(component1):   -0.001023
     Check: negative starting charge=(component2):   -0.001023

     starting charge   36.99968, renormalised to   37.00000

     negative rho (up, down):  1.023E-03 1.023E-03
     Starting wfc are  208 randomized atomic wfcs

     total cpu time spent up to now is       28.5 secs

     per-process dynamical memory:    63.4 Mb

     Self-consistent Calculation

     iteration #  1     ecut=    90.00 Ry     beta=0.70
     CG style diagonalization
     ethr =  1.00E-02,  avg # of iterations =  5.4

     negative rho (up, down):  2.278E-04 2.286E-04
 
     Magnetic moment per site:
     atom:    1    charge:    0.8545    magn:    0.0339    constr:    0.0000
     atom:    2    charge:    0.8565    magn:    0.0320    constr:    0.0000
     atom:    3    charge:    0.8878    magn:    0.0002    constr:    0.0000
     atom:    4    charge:    0.8600    magn:    0.0269    constr:    0.0000
     atom:    5    charge:    0.8618    magn:    0.0251    constr:    0.0000
     atom:    6    charge:    0.8874    magn:    0.0005    constr:    0.0000
     atom:    7    charge:    0.4405    magn:    0.0008    constr:    0.0000
     atom:    8    charge:    0.4408    magn:    0.0005    constr:    0.0000
     atom:    9    charge:    0.4416    magn:   -0.0001    constr:    0.0000
     atom:   10    charge:    0.4409    magn:    0.0005    constr:    0.0000
     atom:   11    charge:    0.4411    magn:    0.0005    constr:    0.0000
     atom:   12    charge:    0.4415    magn:   -0.0001    constr:    0.0000
     atom:   13    charge:    6.6600    magn:    0.0939    constr:    0.0000

     total cpu time spent up to now is       38.0 secs

     The total energy is the sum of the following terms:

     one-electron contribution =    -696.00647191 Ry
     hartree contribution      =     351.25343324 Ry
     xc contribution           =     -30.93096918 Ry
     ewald contribution        =     268.46058250 Ry

     total energy              =    -102.46147096 Ry
     Harris-Foulkes estimate   =    -103.24635160 Ry
     estimated scf accuracy    <       1.31192446 Ry

     total magnetization       =     1.00 Bohr mag/cell
     absolute magnetization    =     1.00 Bohr mag/cell

     iteration #  2     ecut=    90.00 Ry     beta=0.70
     CG style diagonalization
     ethr =  3.55E-03,  avg # of iterations =  5.5

     negative rho (up, down):  9.072E-05 9.286E-05
 
     Magnetic moment per site:
     atom:    1    charge:    0.8526    magn:    0.0266    constr:    0.0000
     atom:    2    charge:    0.8520    magn:    0.0251    constr:    0.0000
     atom:    3    charge:    0.8432    magn:   -0.0016    constr:    0.0000
     atom:    4    charge:    0.8584    magn:    0.0180    constr:    0.0000
     atom:    5    charge:    0.8581    magn:    0.0167    constr:    0.0000
     atom:    6    charge:    0.8435    magn:   -0.0015    constr:    0.0000
     atom:    7    charge:    0.4723    magn:   -0.0001    constr:    0.0000
     atom:    8    charge:    0.4726    magn:   -0.0002    constr:    0.0000
     atom:    9    charge:    0.4740    magn:   -0.0002    constr:    0.0000
     atom:   10    charge:    0.4742    magn:   -0.0002    constr:    0.0000
     atom:   11    charge:    0.4742    magn:   -0.0002    constr:    0.0000
     atom:   12    charge:    0.4740    magn:   -0.0002    constr:    0.0000
     atom:   13    charge:    6.2842    magn:    0.3700    constr:    0.0000

     total cpu time spent up to now is       44.6 secs

     The total energy is the sum of the following terms:

     one-electron contribution =    -687.11407369 Ry
     hartree contribution      =     348.95969443 Ry
     xc contribution           =     -30.65789866 Ry
     ewald contribution        =     268.46058250 Ry

     total energy              =    -102.59608429 Ry
     Harris-Foulkes estimate   =    -102.87706559 Ry
     estimated scf accuracy    <       0.50230576 Ry

     total magnetization       =     1.00 Bohr mag/cell
     absolute magnetization    =     1.12 Bohr mag/cell

     iteration #  3     ecut=    90.00 Ry     beta=0.70
     CG style diagonalization
     ethr =  1.36E-03,  avg # of iterations =  3.9

     negative rho (up, down):  4.282E-05 4.442E-05
 
     Magnetic moment per site:
     atom:    1    charge:    0.8385    magn:    0.0334    constr:    0.0000
     atom:    2    charge:    0.8387    magn:    0.0313    constr:    0.0000
     atom:    3    charge:    0.8359    magn:   -0.0029    constr:    0.0000
     atom:    4    charge:    0.8368    magn:    0.0257    constr:    0.0000
     atom:    5    charge:    0.8371    magn:    0.0237    constr:    0.0000
     atom:    6    charge:    0.8361    magn:   -0.0028    constr:    0.0000
     atom:    7    charge:    0.4848    magn:   -0.0002    constr:    0.0000
     atom:    8    charge:    0.4850    magn:   -0.0003    constr:    0.0000
     atom:    9    charge:    0.4878    magn:   -0.0002    constr:    0.0000
     atom:   10    charge:    0.4867    magn:   -0.0002    constr:    0.0000
     atom:   11    charge:    0.4868    magn:   -0.0002    constr:    0.0000
     atom:   12    charge:    0.4878    magn:   -0.0002    constr:    0.0000
     atom:   13    charge:    6.4512    magn:    0.2952    constr:    0.0000

     total cpu time spent up to now is       49.8 secs

     The total energy is the sum of the following terms:

     one-electron contribution =    -687.71355858 Ry
     hartree contribution      =     348.15041159 Ry
     xc contribution           =     -30.68885166 Ry
     ewald contribution        =     268.46058250 Ry

     total energy              =    -102.71206074 Ry
     Harris-Foulkes estimate   =    -102.83947248 Ry
     estimated scf accuracy    <       0.30546583 Ry

     total magnetization       =     1.00 Bohr mag/cell
     absolute magnetization    =     1.12 Bohr mag/cell

     iteration #  4     ecut=    90.00 Ry     beta=0.70
     CG style diagonalization
     ethr =  8.26E-04,  avg # of iterations =  3.3

     negative rho (up, down):  8.903E-06 9.322E-06
 
     Magnetic moment per site:
     atom:    1    charge:    0.8312    magn:    0.0370    constr:    0.0000
     atom:    2    charge:    0.8313    magn:    0.0353    constr:    0.0000
     atom:    3    charge:    0.8402    magn:   -0.0041    constr:    0.0000
     atom:    4    charge:    0.8392    magn:    0.0249    constr:    0.0000
     atom:    5    charge:    0.8392    magn:    0.0232    constr:    0.0000
     atom:    6    charge:    0.8399    magn:   -0.0040    constr:    0.0000
     atom:    7    charge:    0.4909    magn:   -0.0006    constr:    0.0000
     atom:    8    charge:    0.4910    magn:   -0.0006    constr:    0.0000
     atom:    9    charge:    0.4930    magn:   -0.0002    constr:    0.0000
     atom:   10    charge:    0.4934    magn:   -0.0006    constr:    0.0000
     atom:   11    charge:    0.4935    magn:   -0.0005    constr:    0.0000
     atom:   12    charge:    0.4930    magn:   -0.0002    constr:    0.0000
     atom:   13    charge:    6.4466    magn:    0.3471    constr:    0.0000

     total cpu time spent up to now is       54.4 secs

     The total energy is the sum of the following terms:

     one-electron contribution =    -690.03333358 Ry
     hartree contribution      =     348.79293237 Ry
     xc contribution           =     -30.76972879 Ry
     ewald contribution        =     268.46058250 Ry

     total energy              =    -102.75444144 Ry
     Harris-Foulkes estimate   =    -102.76222106 Ry
     estimated scf accuracy    <       0.01690286 Ry

     total magnetization       =     1.00 Bohr mag/cell
     absolute magnetization    =     1.12 Bohr mag/cell

     iteration #  5     ecut=    90.00 Ry     beta=0.70
     CG style diagonalization
     c_bands:  1 eigenvalues not converged
     c_bands:  1 eigenvalues not converged
     ethr =  4.57E-05,  avg # of iterations =  6.2

     negative rho (up, down):  2.976E-06 3.139E-06
 
     Magnetic moment per site:
     atom:    1    charge:    0.8357    magn:    0.0398    constr:    0.0000
     atom:    2    charge:    0.8361    magn:    0.0380    constr:    0.0000
     atom:    3    charge:    0.8414    magn:   -0.0054    constr:    0.0000
     atom:    4    charge:    0.8370    magn:    0.0256    constr:    0.0000
     atom:    5    charge:    0.8374    magn:    0.0241    constr:    0.0000
     atom:    6    charge:    0.8414    magn:   -0.0052    constr:    0.0000
     atom:    7    charge:    0.4907    magn:   -0.0009    constr:    0.0000
     atom:    8    charge:    0.4908    magn:   -0.0009    constr:    0.0000
     atom:    9    charge:    0.4921    magn:   -0.0002    constr:    0.0000
     atom:   10    charge:    0.4929    magn:   -0.0007    constr:    0.0000
     atom:   11    charge:    0.4929    magn:   -0.0007    constr:    0.0000
     atom:   12    charge:    0.4921    magn:   -0.0002    constr:    0.0000
     atom:   13    charge:    6.4522    magn:    0.3495    constr:    0.0000

     total cpu time spent up to now is       61.7 secs

     The total energy is the sum of the following terms:

     one-electron contribution =    -689.49807004 Ry
     hartree contribution      =     348.94071142 Ry
     xc contribution           =     -30.78598742 Ry
     ewald contribution        =     268.46058250 Ry

     total energy              =    -102.75853129 Ry
     Harris-Foulkes estimate   =    -102.76094669 Ry
     estimated scf accuracy    <       0.00637289 Ry

     total magnetization       =     1.00 Bohr mag/cell
     absolute magnetization    =     1.16 Bohr mag/cell

     iteration #  6     ecut=    90.00 Ry     beta=0.70
     CG style diagonalization
     ethr =  1.72E-05,  avg # of iterations =  3.8

     negative rho (up, down):  1.007E-06 1.064E-06
 
     Magnetic moment per site:
     atom:    1    charge:    0.8361    magn:    0.0420    constr:    0.0000
     atom:    2    charge:    0.8365    magn:    0.0406    constr:    0.0000
     atom:    3    charge:    0.8417    magn:   -0.0063    constr:    0.0000
     atom:    4    charge:    0.8389    magn:    0.0257    constr:    0.0000
     atom:    5    charge:    0.8394    magn:    0.0244    constr:    0.0000
     atom:    6    charge:    0.8418    magn:   -0.0061    constr:    0.0000
     atom:    7    charge:    0.4897    magn:   -0.0012    constr:    0.0000
     atom:    8    charge:    0.4898    magn:   -0.0011    constr:    0.0000
     atom:    9    charge:    0.4911    magn:   -0.0002    constr:    0.0000
     atom:   10    charge:    0.4921    magn:   -0.0009    constr:    0.0000
     atom:   11    charge:    0.4922    magn:   -0.0008    constr:    0.0000
     atom:   12    charge:    0.4911    magn:   -0.0002    constr:    0.0000
     atom:   13    charge:    6.4579    magn:    0.3493    constr:    0.0000

     total cpu time spent up to now is       66.7 secs

     The total energy is the sum of the following terms:

     one-electron contribution =    -689.46460539 Ry
     hartree contribution      =     348.97482830 Ry
     xc contribution           =     -30.79234118 Ry
     ewald contribution        =     268.46058250 Ry

     total energy              =    -102.75971446 Ry
     Harris-Foulkes estimate   =    -102.75995765 Ry
     estimated scf accuracy    <       0.00080068 Ry

     total magnetization       =     1.00 Bohr mag/cell
     absolute magnetization    =     1.17 Bohr mag/cell

     iteration #  7     ecut=    90.00 Ry     beta=0.70
     CG style diagonalization
     c_bands:  1 eigenvalues not converged
     ethr =  2.16E-06,  avg # of iterations =  5.5

     negative rho (up, down):  8.894E-08 9.342E-08
 
     Magnetic moment per site:
     atom:    1    charge:    0.8364    magn:    0.0437    constr:    0.0000
     atom:    2    charge:    0.8369    magn:    0.0426    constr:    0.0000
     atom:    3    charge:    0.8424    magn:   -0.0075    constr:    0.0000
     atom:    4    charge:    0.8393    magn:    0.0255    constr:    0.0000
     atom:    5    charge:    0.8398    magn:    0.0244    constr:    0.0000
     atom:    6    charge:    0.8423    magn:   -0.0072    constr:    0.0000
     atom:    7    charge:    0.4894    magn:   -0.0015    constr:    0.0000
     atom:    8    charge:    0.4895    magn:   -0.0014    constr:    0.0000
     atom:    9    charge:    0.4907    magn:   -0.0001    constr:    0.0000
     atom:   10    charge:    0.4915    magn:   -0.0011    constr:    0.0000
     atom:   11    charge:    0.4916    magn:   -0.0010    constr:    0.0000
     atom:   12    charge:    0.4907    magn:   -0.0001    constr:    0.0000
     atom:   13    charge:    6.4548    magn:    0.3568    constr:    0.0000

     total cpu time spent up to now is       73.4 secs

     The total energy is the sum of the following terms:

     one-electron contribution =    -689.47649311 Ry
     hartree contribution      =     349.00427082 Ry
     xc contribution           =     -30.79356778 Ry
     ewald contribution        =     268.46058250 Ry

     total energy              =    -102.75991286 Ry
     Harris-Foulkes estimate   =    -102.75990258 Ry
     estimated scf accuracy    <       0.00011717 Ry

     total magnetization       =     1.00 Bohr mag/cell
     absolute magnetization    =     1.18 Bohr mag/cell

     iteration #  8     ecut=    90.00 Ry     beta=0.70
     CG style diagonalization
     c_bands:  2 eigenvalues not converged
     ethr =  3.17E-07,  avg # of iterations =  6.1

     negative rho (up, down):  4.005E-07 4.209E-07
 
     Magnetic moment per site:
     atom:    1    charge:    0.8362    magn:    0.0450    constr:    0.0000
     atom:    2    charge:    0.8366    magn:    0.0442    constr:    0.0000
     atom:    3    charge:    0.8422    magn:   -0.0084    constr:    0.0000
     atom:    4    charge:    0.8392    magn:    0.0254    constr:    0.0000
     atom:    5    charge:    0.8396    magn:    0.0247    constr:    0.0000
     atom:    6    charge:    0.8422    magn:   -0.0082    constr:    0.0000
     atom:    7    charge:    0.4895    magn:   -0.0017    constr:    0.0000
     atom:    8    charge:    0.4896    magn:   -0.0016    constr:    0.0000
     atom:    9    charge:    0.4907    magn:    0.0000    constr:    0.0000
     atom:   10    charge:    0.4916    magn:   -0.0012    constr:    0.0000
     atom:   11    charge:    0.4917    magn:   -0.0011    constr:    0.0000
     atom:   12    charge:    0.4907    magn:    0.0000    constr:    0.0000
     atom:   13    charge:    6.4564    magn:    0.3574    constr:    0.0000

     total cpu time spent up to now is       80.3 secs

     The total energy is the sum of the following terms:

     one-electron contribution =    -689.37549178 Ry
     hartree contribution      =     348.98771463 Ry
     xc contribution           =     -30.79334326 Ry
     ewald contribution        =     268.46058250 Ry

     total energy              =    -102.75996273 Ry
     Harris-Foulkes estimate   =    -102.75996631 Ry
     estimated scf accuracy    <       0.00005385 Ry

     total magnetization       =     1.00 Bohr mag/cell
     absolute magnetization    =     1.19 Bohr mag/cell

     iteration #  9     ecut=    90.00 Ry     beta=0.70
     CG style diagonalization
     ethr =  1.46E-07,  avg # of iterations =  5.9

     negative rho (up, down):  4.748E-08 6.059E-08
 
     Magnetic moment per site:
     atom:    1    charge:    0.8362    magn:    0.0452    constr:    0.0000
     atom:    2    charge:    0.8367    magn:    0.0446    constr:    0.0000
     atom:    3    charge:    0.8421    magn:   -0.0087    constr:    0.0000
     atom:    4    charge:    0.8390    magn:    0.0254    constr:    0.0000
     atom:    5    charge:    0.8395    magn:    0.0247    constr:    0.0000
     atom:    6    charge:    0.8421    magn:   -0.0085    constr:    0.0000
     atom:    7    charge:    0.4896    magn:   -0.0017    constr:    0.0000
     atom:    8    charge:    0.4897    magn:   -0.0017    constr:    0.0000
     atom:    9    charge:    0.4909    magn:    0.0000    constr:    0.0000
     atom:   10    charge:    0.4917    magn:   -0.0012    constr:    0.0000
     atom:   11    charge:    0.4918    magn:   -0.0011    constr:    0.0000
     atom:   12    charge:    0.4908    magn:    0.0000    constr:    0.0000
     atom:   13    charge:    6.4557    magn:    0.3583    constr:    0.0000

     total cpu time spent up to now is       87.1 secs

     The total energy is the sum of the following terms:

     one-electron contribution =    -689.42526610 Ry
     hartree contribution      =     348.98796968 Ry
     xc contribution           =     -30.79345369 Ry
     ewald contribution        =     268.46058250 Ry

     total energy              =    -102.75997878 Ry
     Harris-Foulkes estimate   =    -102.75998138 Ry
     estimated scf accuracy    <       0.00001751 Ry

     total magnetization       =     1.00 Bohr mag/cell
     absolute magnetization    =     1.20 Bohr mag/cell

     iteration # 10     ecut=    90.00 Ry     beta=0.70
     CG style diagonalization
     ethr =  4.73E-08,  avg # of iterations =  4.8

     negative rho (up, down):  8.076E-09 1.090E-08
 
     Magnetic moment per site:
     atom:    1    charge:    0.8363    magn:    0.0455    constr:    0.0000
     atom:    2    charge:    0.8367    magn:    0.0451    constr:    0.0000
     atom:    3    charge:    0.8421    magn:   -0.0090    constr:    0.0000
     atom:    4    charge:    0.8391    magn:    0.0253    constr:    0.0000
     atom:    5    charge:    0.8395    magn:    0.0248    constr:    0.0000
     atom:    6    charge:    0.8421    magn:   -0.0088    constr:    0.0000
     atom:    7    charge:    0.4896    magn:   -0.0018    constr:    0.0000
     atom:    8    charge:    0.4897    magn:   -0.0018    constr:    0.0000
     atom:    9    charge:    0.4909    magn:    0.0000    constr:    0.0000
     atom:   10    charge:    0.4917    magn:   -0.0012    constr:    0.0000
     atom:   11    charge:    0.4918    magn:   -0.0011    constr:    0.0000
     atom:   12    charge:    0.4909    magn:    0.0000    constr:    0.0000
     atom:   13    charge:    6.4554    magn:    0.3587    constr:    0.0000

     total cpu time spent up to now is       92.9 secs

     The total energy is the sum of the following terms:

     one-electron contribution =    -689.41545505 Ry
     hartree contribution      =     348.98821103 Ry
     xc contribution           =     -30.79353022 Ry
     ewald contribution        =     268.46058250 Ry

     total energy              =    -102.75998240 Ry
     Harris-Foulkes estimate   =    -102.75998172 Ry
     estimated scf accuracy    <       0.00000107 Ry

     total magnetization       =     1.00 Bohr mag/cell
     absolute magnetization    =     1.20 Bohr mag/cell

     iteration # 11     ecut=    90.00 Ry     beta=0.70
     CG style diagonalization
     ethr =  2.90E-09,  avg # of iterations =  6.6

     negative rho (up, down):  5.728E-08 6.584E-08
 
     Magnetic moment per site:
     atom:    1    charge:    0.8362    magn:    0.0457    constr:    0.0000
     atom:    2    charge:    0.8367    magn:    0.0454    constr:    0.0000
     atom:    3    charge:    0.8422    magn:   -0.0092    constr:    0.0000
     atom:    4    charge:    0.8391    magn:    0.0252    constr:    0.0000
     atom:    5    charge:    0.8395    magn:    0.0249    constr:    0.0000
     atom:    6    charge:    0.8421    magn:   -0.0090    constr:    0.0000
     atom:    7    charge:    0.4896    magn:   -0.0018    constr:    0.0000
     atom:    8    charge:    0.4897    magn:   -0.0018    constr:    0.0000
     atom:    9    charge:    0.4908    magn:    0.0001    constr:    0.0000
     atom:   10    charge:    0.4917    magn:   -0.0012    constr:    0.0000
     atom:   11    charge:    0.4918    magn:   -0.0011    constr:    0.0000
     atom:   12    charge:    0.4908    magn:    0.0001    constr:    0.0000
     atom:   13    charge:    6.4557    magn:    0.3586    constr:    0.0000

     total cpu time spent up to now is      100.4 secs

     The total energy is the sum of the following terms:

     one-electron contribution =    -689.41347536 Ry
     hartree contribution      =     348.98831696 Ry
     xc contribution           =     -30.79367146 Ry
     ewald contribution        =     268.46058250 Ry

     total energy              =    -102.75998350 Ry
     Harris-Foulkes estimate   =    -102.75998345 Ry
     estimated scf accuracy    <       0.00000160 Ry

     total magnetization       =     1.00 Bohr mag/cell
     absolute magnetization    =     1.21 Bohr mag/cell

     iteration # 12     ecut=    90.00 Ry     beta=0.70
     CG style diagonalization
     ethr =  2.90E-09,  avg # of iterations =  4.7
 
     Magnetic moment per site:
     atom:    1    charge:    0.8363    magn:    0.0458    constr:    0.0000
     atom:    2    charge:    0.8367    magn:    0.0457    constr:    0.0000
     atom:    3    charge:    0.8422    magn:   -0.0094    constr:    0.0000
     atom:    4    charge:    0.8391    magn:    0.0252    constr:    0.0000
     atom:    5    charge:    0.8396    magn:    0.0250    constr:    0.0000
     atom:    6    charge:    0.8422    magn:   -0.0093    constr:    0.0000
     atom:    7    charge:    0.4896    magn:   -0.0019    constr:    0.0000
     atom:    8    charge:    0.4897    magn:   -0.0019    constr:    0.0000
     atom:    9    charge:    0.4908    magn:    0.0001    constr:    0.0000
     atom:   10    charge:    0.4917    magn:   -0.0012    constr:    0.0000
     atom:   11    charge:    0.4918    magn:   -0.0012    constr:    0.0000
     atom:   12    charge:    0.4908    magn:    0.0001    constr:    0.0000
     atom:   13    charge:    6.4557    magn:    0.3584    constr:    0.0000

     total cpu time spent up to now is      106.0 secs

     The total energy is the sum of the following terms:

     one-electron contribution =    -689.41577788 Ry
     hartree contribution      =     348.98917386 Ry
     xc contribution           =     -30.79377849 Ry
     ewald contribution        =     268.46058250 Ry

     total energy              =    -102.75998389 Ry
     Harris-Foulkes estimate   =    -102.75998379 Ry
     estimated scf accuracy    <       0.00000014 Ry

     total magnetization       =     1.00 Bohr mag/cell
     absolute magnetization    =     1.21 Bohr mag/cell

     iteration # 13     ecut=    90.00 Ry     beta=0.70
     CG style diagonalization
     ethr =  3.81E-10,  avg # of iterations =  6.8
 
     Magnetic moment per site:
     atom:    1    charge:    0.8363    magn:    0.0458    constr:    0.0000
     atom:    2    charge:    0.8367    magn:    0.0458    constr:    0.0000
     atom:    3    charge:    0.8422    magn:   -0.0094    constr:    0.0000
     atom:    4    charge:    0.8391    magn:    0.0252    constr:    0.0000
     atom:    5    charge:    0.8395    magn:    0.0251    constr:    0.0000
     atom:    6    charge:    0.8422    magn:   -0.0094    constr:    0.0000
     atom:    7    charge:    0.4896    magn:   -0.0019    constr:    0.0000
     atom:    8    charge:    0.4897    magn:   -0.0019    constr:    0.0000
     atom:    9    charge:    0.4908    magn:    0.0001    constr:    0.0000
     atom:   10    charge:    0.4917    magn:   -0.0012    constr:    0.0000
     atom:   11    charge:    0.4918    magn:   -0.0012    constr:    0.0000
     atom:   12    charge:    0.4908    magn:    0.0001    constr:    0.0000
     atom:   13    charge:    6.4558    magn:    0.3583    constr:    0.0000

     total cpu time spent up to now is      113.7 secs

     The total energy is the sum of the following terms:

     one-electron contribution =    -689.41346340 Ry
     hartree contribution      =     348.98855002 Ry
     xc contribution           =     -30.79375169 Ry
     ewald contribution        =     268.46058250 Ry

     total energy              =    -102.75998405 Ry
     Harris-Foulkes estimate   =    -102.75998404 Ry
     estimated scf accuracy    <       0.00000010 Ry

     total magnetization       =     1.00 Bohr mag/cell
     absolute magnetization    =     1.21 Bohr mag/cell

     iteration # 14     ecut=    90.00 Ry     beta=0.70
     CG style diagonalization
     ethr =  2.70E-10,  avg # of iterations =  5.8
 
     Magnetic moment per site:
     atom:    1    charge:    0.8363    magn:    0.0458    constr:    0.0000
     atom:    2    charge:    0.8367    magn:    0.0458    constr:    0.0000
     atom:    3    charge:    0.8422    magn:   -0.0094    constr:    0.0000
     atom:    4    charge:    0.8391    magn:    0.0251    constr:    0.0000
     atom:    5    charge:    0.8395    magn:    0.0251    constr:    0.0000
     atom:    6    charge:    0.8422    magn:   -0.0094    constr:    0.0000
     atom:    7    charge:    0.4896    magn:   -0.0019    constr:    0.0000
     atom:    8    charge:    0.4897    magn:   -0.0019    constr:    0.0000
     atom:    9    charge:    0.4908    magn:    0.0001    constr:    0.0000
     atom:   10    charge:    0.4917    magn:   -0.0012    constr:    0.0000
     atom:   11    charge:    0.4918    magn:   -0.0012    constr:    0.0000
     atom:   12    charge:    0.4908    magn:    0.0001    constr:    0.0000
     atom:   13    charge:    6.4558    magn:    0.3582    constr:    0.0000

     total cpu time spent up to now is      120.4 secs

     The total energy is the sum of the following terms:

     one-electron contribution =    -689.41448571 Ry
     hartree contribution      =     348.98828357 Ry
     xc contribution           =     -30.79373704 Ry
     ewald contribution        =     268.46058250 Ry

     total energy              =    -102.75998407 Ry
     Harris-Foulkes estimate   =    -102.75998407 Ry
     estimated scf accuracy    <       0.00000003 Ry

     total magnetization       =     1.00 Bohr mag/cell
     absolute magnetization    =     1.21 Bohr mag/cell

     iteration # 15     ecut=    90.00 Ry     beta=0.70
     CG style diagonalization
     ethr =  7.02E-11,  avg # of iterations =  4.4
 
     Magnetic moment per site:
     atom:    1    charge:    0.8363    magn:    0.0458    constr:    0.0000
     atom:    2    charge:    0.8367    magn:    0.0459    constr:    0.0000
     atom:    3    charge:    0.8422    magn:   -0.0094    constr:    0.0000
     atom:    4    charge:    0.8391    magn:    0.0251    constr:    0.0000
     atom:    5    charge:    0.8395    magn:    0.0251    constr:    0.0000
     atom:    6    charge:    0.8422    magn:   -0.0094    constr:    0.0000
     atom:    7    charge:    0.4896    magn:   -0.0019    constr:    0.0000
     atom:    8    charge:    0.4897    magn:   -0.0019    constr:    0.0000
     atom:    9    charge:    0.4908    magn:    0.0001    constr:    0.0000
     atom:   10    charge:    0.4917    magn:   -0.0012    constr:    0.0000
     atom:   11    charge:    0.4918    magn:   -0.0012    constr:    0.0000
     atom:   12    charge:    0.4908    magn:    0.0001    constr:    0.0000
     atom:   13    charge:    6.4558    magn:    0.3582    constr:    0.0000

     total cpu time spent up to now is      125.8 secs

     The total energy is the sum of the following terms:

     one-electron contribution =    -689.41505314 Ry
     hartree contribution      =     348.98824420 Ry
     xc contribution           =     -30.79373668 Ry
     ewald contribution        =     268.46058250 Ry

     total energy              =    -102.75998408 Ry
     Harris-Foulkes estimate   =    -102.75998408 Ry
     estimated scf accuracy    <          6.8E-09 Ry

     total magnetization       =     1.00 Bohr mag/cell
     absolute magnetization    =     1.21 Bohr mag/cell

     iteration # 16     ecut=    90.00 Ry     beta=0.70
     CG style diagonalization
     ethr =  1.83E-11,  avg # of iterations =  5.0
 
     Magnetic moment per site:
     atom:    1    charge:    0.8363    magn:    0.0457    constr:    0.0000
     atom:    2    charge:    0.8367    magn:    0.0459    constr:    0.0000
     atom:    3    charge:    0.8422    magn:   -0.0094    constr:    0.0000
     atom:    4    charge:    0.8391    magn:    0.0251    constr:    0.0000
     atom:    5    charge:    0.8395    magn:    0.0252    constr:    0.0000
     atom:    6    charge:    0.8422    magn:   -0.0094    constr:    0.0000
     atom:    7    charge:    0.4896    magn:   -0.0019    constr:    0.0000
     atom:    8    charge:    0.4897    magn:   -0.0019    constr:    0.0000
     atom:    9    charge:    0.4908    magn:    0.0001    constr:    0.0000
     atom:   10    charge:    0.4917    magn:   -0.0012    constr:    0.0000
     atom:   11    charge:    0.4918    magn:   -0.0012    constr:    0.0000
     atom:   12    charge:    0.4908    magn:    0.0001    constr:    0.0000
     atom:   13    charge:    6.4558    magn:    0.3582    constr:    0.0000

     total cpu time spent up to now is      131.7 secs

     The total energy is the sum of the following terms:

     one-electron contribution =    -689.41515831 Ry
     hartree contribution      =     348.98829148 Ry
     xc contribution           =     -30.79374050 Ry
     ewald contribution        =     268.46058250 Ry

     total energy              =    -102.75998409 Ry
     Harris-Foulkes estimate   =    -102.75998409 Ry
     estimated scf accuracy    <          4.0E-09 Ry

     total magnetization       =     1.00 Bohr mag/cell
     absolute magnetization    =     1.21 Bohr mag/cell

     iteration # 17     ecut=    90.00 Ry     beta=0.70
     CG style diagonalization
     ethr =  1.08E-11,  avg # of iterations =  4.1
 
     Magnetic moment per site:
     atom:    1    charge:    0.8363    magn:    0.0457    constr:    0.0000
     atom:    2    charge:    0.8367    magn:    0.0459    constr:    0.0000
     atom:    3    charge:    0.8422    magn:   -0.0094    constr:    0.0000
     atom:    4    charge:    0.8391    magn:    0.0251    constr:    0.0000
     atom:    5    charge:    0.8395    magn:    0.0252    constr:    0.0000
     atom:    6    charge:    0.8422    magn:   -0.0094    constr:    0.0000
     atom:    7    charge:    0.4896    magn:   -0.0019    constr:    0.0000
     atom:    8    charge:    0.4897    magn:   -0.0019    constr:    0.0000
     atom:    9    charge:    0.4908    magn:    0.0001    constr:    0.0000
     atom:   10    charge:    0.4917    magn:   -0.0012    constr:    0.0000
     atom:   11    charge:    0.4918    magn:   -0.0012    constr:    0.0000
     atom:   12    charge:    0.4908    magn:    0.0001    constr:    0.0000
     atom:   13    charge:    6.4558    magn:    0.3582    constr:    0.0000

     total cpu time spent up to now is      136.7 secs

     The total energy is the sum of the following terms:

     one-electron contribution =    -689.41508531 Ry
     hartree contribution      =     348.98829777 Ry
     xc contribution           =     -30.79374048 Ry
     ewald contribution        =     268.46058250 Ry

     total energy              =    -102.75998409 Ry
     Harris-Foulkes estimate   =    -102.75998409 Ry
     estimated scf accuracy    <          1.4E-09 Ry

     total magnetization       =     1.00 Bohr mag/cell
     absolute magnetization    =     1.21 Bohr mag/cell

     iteration # 18     ecut=    90.00 Ry     beta=0.70
     CG style diagonalization
     ethr =  3.77E-12,  avg # of iterations =  7.1
 
     Magnetic moment per site:
     atom:    1    charge:    0.8363    magn:    0.0457    constr:    0.0000
     atom:    2    charge:    0.8367    magn:    0.0459    constr:    0.0000
     atom:    3    charge:    0.8422    magn:   -0.0094    constr:    0.0000
     atom:    4    charge:    0.8391    magn:    0.0251    constr:    0.0000
     atom:    5    charge:    0.8395    magn:    0.0252    constr:    0.0000
     atom:    6    charge:    0.8422    magn:   -0.0094    constr:    0.0000
     atom:    7    charge:    0.4896    magn:   -0.0019    constr:    0.0000
     atom:    8    charge:    0.4897    magn:   -0.0019    constr:    0.0000
     atom:    9    charge:    0.4908    magn:    0.0001    constr:    0.0000
     atom:   10    charge:    0.4917    magn:   -0.0012    constr:    0.0000
     atom:   11    charge:    0.4918    magn:   -0.0012    constr:    0.0000
     atom:   12    charge:    0.4908    magn:    0.0001    constr:    0.0000
     atom:   13    charge:    6.4558    magn:    0.3582    constr:    0.0000

     total cpu time spent up to now is      144.6 secs

     The total energy is the sum of the following terms:

     one-electron contribution =    -689.41506089 Ry
     hartree contribution      =     348.98828525 Ry
     xc contribution           =     -30.79373876 Ry
     ewald contribution        =     268.46058250 Ry

     total energy              =    -102.75998410 Ry
     Harris-Foulkes estimate   =    -102.75998410 Ry
     estimated scf accuracy    <          6.0E-10 Ry

     total magnetization       =     1.00 Bohr mag/cell
     absolute magnetization    =     1.21 Bohr mag/cell

     iteration # 19     ecut=    90.00 Ry     beta=0.70
     CG style diagonalization
     ethr =  1.62E-12,  avg # of iterations =  5.2
 
     Magnetic moment per site:
     atom:    1    charge:    0.8363    magn:    0.0457    constr:    0.0000
     atom:    2    charge:    0.8367    magn:    0.0459    constr:    0.0000
     atom:    3    charge:    0.8422    magn:   -0.0094    constr:    0.0000
     atom:    4    charge:    0.8391    magn:    0.0251    constr:    0.0000
     atom:    5    charge:    0.8395    magn:    0.0252    constr:    0.0000
     atom:    6    charge:    0.8422    magn:   -0.0094    constr:    0.0000
     atom:    7    charge:    0.4896    magn:   -0.0019    constr:    0.0000
     atom:    8    charge:    0.4897    magn:   -0.0019    constr:    0.0000
     atom:    9    charge:    0.4908    magn:    0.0001    constr:    0.0000
     atom:   10    charge:    0.4917    magn:   -0.0012    constr:    0.0000
     atom:   11    charge:    0.4918    magn:   -0.0012    constr:    0.0000
     atom:   12    charge:    0.4908    magn:    0.0001    constr:    0.0000
     atom:   13    charge:    6.4558    magn:    0.3582    constr:    0.0000

     total cpu time spent up to now is      150.7 secs

     The total energy is the sum of the following terms:

     one-electron contribution =    -689.41510693 Ry
     hartree contribution      =     348.98827646 Ry
     xc contribution           =     -30.79373805 Ry
     ewald contribution        =     268.46058250 Ry

     total energy              =    -102.75998410 Ry
     Harris-Foulkes estimate   =    -102.75998410 Ry
     estimated scf accuracy    <          9.1E-11 Ry

     total magnetization       =     1.00 Bohr mag/cell
     absolute magnetization    =     1.21 Bohr mag/cell

     iteration # 20     ecut=    90.00 Ry     beta=0.70
     CG style diagonalization
     ethr =  2.47E-13,  avg # of iterations =  6.0
 
     Magnetic moment per site:
     atom:    1    charge:    0.8363    magn:    0.0457    constr:    0.0000
     atom:    2    charge:    0.8367    magn:    0.0459    constr:    0.0000
     atom:    3    charge:    0.8422    magn:   -0.0094    constr:    0.0000
     atom:    4    charge:    0.8391    magn:    0.0251    constr:    0.0000
     atom:    5    charge:    0.8395    magn:    0.0252    constr:    0.0000
     atom:    6    charge:    0.8422    magn:   -0.0094    constr:    0.0000
     atom:    7    charge:    0.4896    magn:   -0.0019    constr:    0.0000
     atom:    8    charge:    0.4897    magn:   -0.0019    constr:    0.0000
     atom:    9    charge:    0.4908    magn:    0.0001    constr:    0.0000
     atom:   10    charge:    0.4917    magn:   -0.0012    constr:    0.0000
     atom:   11    charge:    0.4918    magn:   -0.0012    constr:    0.0000
     atom:   12    charge:    0.4908    magn:    0.0001    constr:    0.0000
     atom:   13    charge:    6.4558    magn:    0.3582    constr:    0.0000

     total cpu time spent up to now is      157.6 secs

     The total energy is the sum of the following terms:

     one-electron contribution =    -689.41512124 Ry
     hartree contribution      =     348.98828308 Ry
     xc contribution           =     -30.79373864 Ry
     ewald contribution        =     268.46058250 Ry

     total energy              =    -102.75998410 Ry
     Harris-Foulkes estimate   =    -102.75998410 Ry
     estimated scf accuracy    <          7.9E-12 Ry

     total magnetization       =     1.00 Bohr mag/cell
     absolute magnetization    =     1.21 Bohr mag/cell

     iteration # 21     ecut=    90.00 Ry     beta=0.70
     CG style diagonalization
     ethr =  1.00E-13,  avg # of iterations =  4.5
 
     Magnetic moment per site:
     atom:    1    charge:    0.8363    magn:    0.0457    constr:    0.0000
     atom:    2    charge:    0.8367    magn:    0.0459    constr:    0.0000
     atom:    3    charge:    0.8422    magn:   -0.0094    constr:    0.0000
     atom:    4    charge:    0.8391    magn:    0.0251    constr:    0.0000
     atom:    5    charge:    0.8395    magn:    0.0252    constr:    0.0000
     atom:    6    charge:    0.8422    magn:   -0.0094    constr:    0.0000
     atom:    7    charge:    0.4896    magn:   -0.0019    constr:    0.0000
     atom:    8    charge:    0.4897    magn:   -0.0019    constr:    0.0000
     atom:    9    charge:    0.4908    magn:    0.0001    constr:    0.0000
     atom:   10    charge:    0.4917    magn:   -0.0012    constr:    0.0000
     atom:   11    charge:    0.4918    magn:   -0.0012    constr:    0.0000
     atom:   12    charge:    0.4908    magn:    0.0001    constr:    0.0000
     atom:   13    charge:    6.4558    magn:    0.3582    constr:    0.0000

     total cpu time spent up to now is      163.0 secs

     The total energy is the sum of the following terms:

     one-electron contribution =    -689.41511293 Ry
     hartree contribution      =     348.98828278 Ry
     xc contribution           =     -30.79373846 Ry
     ewald contribution        =     268.46058250 Ry

     total energy              =    -102.75998410 Ry
     Harris-Foulkes estimate   =    -102.75998410 Ry
     estimated scf accuracy    <          1.7E-12 Ry

     total magnetization       =     1.00 Bohr mag/cell
     absolute magnetization    =     1.21 Bohr mag/cell

     iteration # 22     ecut=    90.00 Ry     beta=0.70
     CG style diagonalization
     ethr =  1.00E-13,  avg # of iterations =  4.1
 
     Magnetic moment per site:
     atom:    1    charge:    0.8363    magn:    0.0457    constr:    0.0000
     atom:    2    charge:    0.8367    magn:    0.0459    constr:    0.0000
     atom:    3    charge:    0.8422    magn:   -0.0094    constr:    0.0000
     atom:    4    charge:    0.8391    magn:    0.0251    constr:    0.0000
     atom:    5    charge:    0.8395    magn:    0.0252    constr:    0.0000
     atom:    6    charge:    0.8422    magn:   -0.0094    constr:    0.0000
     atom:    7    charge:    0.4896    magn:   -0.0019    constr:    0.0000
     atom:    8    charge:    0.4897    magn:   -0.0019    constr:    0.0000
     atom:    9    charge:    0.4908    magn:    0.0001    constr:    0.0000
     atom:   10    charge:    0.4917    magn:   -0.0012    constr:    0.0000
     atom:   11    charge:    0.4918    magn:   -0.0012    constr:    0.0000
     atom:   12    charge:    0.4908    magn:    0.0001    constr:    0.0000
     atom:   13    charge:    6.4558    magn:    0.3582    constr:    0.0000

     total cpu time spent up to now is      168.1 secs

     End of self-consistent calculation

 ------ SPIN UP ------------


          k = 0.0000 0.0000 0.0000 (389220 PWs)   bands (ev):

   -21.2108 -18.6137 -18.3977 -18.2062 -14.7020 -14.6922 -12.6805 -10.9325
   -10.8797 -10.1518  -9.9298  -9.1995  -8.0735  -8.0705  -7.2086  -6.6061
    -6.4387  -6.2318  -5.9637  -1.3556  -1.0046  -0.1357   0.2051   0.2660
     0.2731   0.3296   0.4209   0.4547   0.6340   0.6463   0.7114   0.7143
     0.7235   0.7246   0.8084   0.8260   0.8338   0.8579   0.8617   0.8936

     occupation numbers 
     1.0000   1.0000   1.0000   1.0000   1.0000   1.0000   1.0000   1.0000
     1.0000   1.0000   1.0000   1.0000   1.0000   1.0000   1.0000   1.0000
     1.0000   1.0000   1.0000   0.0000   0.0000   0.0000   0.0000   0.0000
     0.0000   0.0000   0.0000   0.0000   0.0000   0.0000   0.0000   0.0000
     0.0000   0.0000   0.0000   0.0000   0.0000   0.0000   0.0000   0.0000

 ------ SPIN DOWN ----------


          k = 0.0000 0.0000 0.0000 (389220 PWs)   bands (ev):

   -21.0534 -18.3208 -18.1607 -18.0167 -14.6109 -14.5664 -12.6456 -10.8662
   -10.8133 -10.0828  -9.9233  -8.7985  -8.0445  -8.0237  -6.5526  -6.4750
    -6.2909  -5.8395  -5.4680  -0.8343  -0.7668  -0.1244   0.2272   0.2730
     0.2767   0.3361   0.4217   0.4634   0.6435   0.6493   0.7125   0.7190
     0.7248   0.7284   0.8143   0.8334   0.8344   0.8588   0.8630   0.8943

     occupation numbers 
     1.0000   1.0000   1.0000   1.0000   1.0000   1.0000   1.0000   1.0000
     1.0000   1.0000   1.0000   1.0000   1.0000   1.0000   1.0000   1.0000
     1.0000   1.0000   0.0000   0.0000   0.0000   0.0000   0.0000   0.0000
     0.0000   0.0000   0.0000   0.0000   0.0000   0.0000   0.0000   0.0000
     0.0000   0.0000   0.0000   0.0000   0.0000   0.0000   0.0000   0.0000

     highest occupied, lowest unoccupied level (ev):    -5.8395   -5.4680

     The total energy is the sum of the following terms:

     one-electron contribution =    -689.41511162 Ry
     hartree contribution      =     348.98828349 Ry
     xc contribution           =     -30.79373846 Ry
     ewald contribution        =     268.46058250 Ry

!    total energy              =    -102.75998410 Ry
     Harris-Foulkes estimate   =    -102.75998410 Ry
     estimated scf accuracy    <          2.3E-13 Ry

     The total energy is the sum of the following terms:

     one-electron contribution =    -689.41511162 Ry
     hartree contribution      =     348.98828349 Ry
     xc contribution           =     -30.79373846 Ry
     ewald contribution        =     268.46058250 Ry

     total magnetization       =     1.00 Bohr mag/cell
     absolute magnetization    =     1.21 Bohr mag/cell

     convergence has been achieved in  22 iterations
 
     Using Hirshfeld
        Amplitude [Ry a.u.] :  1.1821E-01
        Acceptor Fragment start :          13
        Acceptor Fragment end   :          13
        Donor Fragment start :           1
        Donor Fragment end   :          12
 
 
     Using Hirshfeld
        Amplitude [Ry a.u.] :  1.1821E-01
        Acceptor Fragment start :          13
        Acceptor Fragment end   :          13
        Donor Fragment start :           1
        Donor Fragment end   :          12
 
     E field correction              : -0.2600639937128136E+01 Ry    
 
     Donor charge                    :      0.6604287281369885 e     
     Acceptor charge                 :     -0.3396740694977636 e     
     Difference of charges           :      1.0001027976347494 e     
 
     epcdft_thr                      :  0.1000000000000000E-03 e     
     Surplus(+)/deficit(-) charge    :  0.1027976347494075E-03 e     
 
     -----------------------------------------------
 
                      SCF converged but...
 
     electron localization condition NOT satisfied
     restarting scf with different applied potential
 
     New field Amp                   :  0.1172114585902947E+00 Ry    
     charge density from previous step
 
     Using Hirshfeld
        Amplitude [Ry a.u.] :  1.1721E-01
        Acceptor Fragment start :          13
        Acceptor Fragment end   :          13
        Donor Fragment start :           1
        Donor Fragment end   :          12
 

     total cpu time spent up to now is      180.5 secs

     per-process dynamical memory:    63.4 Mb

     Self-consistent Calculation

     iteration #  1     ecut=    90.00 Ry     beta=0.70
     CG style diagonalization
     c_bands:  5 eigenvalues not converged
     ethr =  1.00E-13,  avg # of iterations = 29.5
 
     Magnetic moment per site:
     atom:    1    charge:    0.8366    magn:    0.0454    constr:    0.0000
     atom:    2    charge:    0.8370    magn:    0.0456    constr:    0.0000
     atom:    3    charge:    0.8422    magn:   -0.0094    constr:    0.0000
     atom:    4    charge:    0.8394    magn:    0.0247    constr:    0.0000
     atom:    5    charge:    0.8399    magn:    0.0249    constr:    0.0000
     atom:    6    charge:    0.8422    magn:   -0.0094    constr:    0.0000
     atom:    7    charge:    0.4896    magn:   -0.0019    constr:    0.0000
     atom:    8    charge:    0.4897    magn:   -0.0019    constr:    0.0000
     atom:    9    charge:    0.4908    magn:    0.0001    constr:    0.0000
     atom:   10    charge:    0.4917    magn:   -0.0012    constr:    0.0000
     atom:   11    charge:    0.4918    magn:   -0.0012    constr:    0.0000
     atom:   12    charge:    0.4908    magn:    0.0001    constr:    0.0000
     atom:   13    charge:    6.4490    magn:    0.3646    constr:    0.0000

     total cpu time spent up to now is      209.8 secs

     The total energy is the sum of the following terms:

     one-electron contribution =    -689.47323552 Ry
     hartree contribution      =     349.01314781 Ry
     xc contribution           =     -30.79329664 Ry
     ewald contribution        =     268.46058250 Ry

     total energy              =    -102.78194479 Ry
     Harris-Foulkes estimate   =    -102.78199497 Ry
     estimated scf accuracy    <       0.00007052 Ry

     total magnetization       =     1.00 Bohr mag/cell
     absolute magnetization    =     1.21 Bohr mag/cell

     iteration #  2     ecut=    90.00 Ry     beta=0.70
     CG style diagonalization
     ethr =  1.91E-07,  avg # of iterations =  4.3
 
     Magnetic moment per site:
     atom:    1    charge:    0.8363    magn:    0.0456    constr:    0.0000
     atom:    2    charge:    0.8367    magn:    0.0458    constr:    0.0000
     atom:    3    charge:    0.8422    magn:   -0.0094    constr:    0.0000
     atom:    4    charge:    0.8391    magn:    0.0250    constr:    0.0000
     atom:    5    charge:    0.8395    magn:    0.0251    constr:    0.0000
     atom:    6    charge:    0.8422    magn:   -0.0094    constr:    0.0000
     atom:    7    charge:    0.4896    magn:   -0.0019    constr:    0.0000
     atom:    8    charge:    0.4897    magn:   -0.0019    constr:    0.0000
     atom:    9    charge:    0.4909    magn:    0.0001    constr:    0.0000
     atom:   10    charge:    0.4917    magn:   -0.0012    constr:    0.0000
     atom:   11    charge:    0.4918    magn:   -0.0012    constr:    0.0000
     atom:   12    charge:    0.4909    magn:    0.0001    constr:    0.0000
     atom:   13    charge:    6.4542    magn:    0.3604    constr:    0.0000

     total cpu time spent up to now is      215.0 secs

     The total energy is the sum of the following terms:

     one-electron contribution =    -689.33064996 Ry
     hartree contribution      =     348.99326401 Ry
     xc contribution           =     -30.79362431 Ry
     ewald contribution        =     268.46058250 Ry

     total energy              =    -102.78189154 Ry
     Harris-Foulkes estimate   =    -102.78209802 Ry
     estimated scf accuracy    <       0.00088768 Ry

     total magnetization       =     1.00 Bohr mag/cell
     absolute magnetization    =     1.21 Bohr mag/cell

     iteration #  3     ecut=    90.00 Ry     beta=0.70
     CG style diagonalization
     ethr =  1.91E-07,  avg # of iterations =  3.9
 
     Magnetic moment per site:
     atom:    1    charge:    0.8362    magn:    0.0456    constr:    0.0000
     atom:    2    charge:    0.8367    magn:    0.0458    constr:    0.0000
     atom:    3    charge:    0.8422    magn:   -0.0094    constr:    0.0000
     atom:    4    charge:    0.8391    magn:    0.0249    constr:    0.0000
     atom:    5    charge:    0.8395    magn:    0.0251    constr:    0.0000
     atom:    6    charge:    0.8422    magn:   -0.0094    constr:    0.0000
     atom:    7    charge:    0.4896    magn:   -0.0019    constr:    0.0000
     atom:    8    charge:    0.4897    magn:   -0.0019    constr:    0.0000
     atom:    9    charge:    0.4909    magn:    0.0001    constr:    0.0000
     atom:   10    charge:    0.4917    magn:   -0.0012    constr:    0.0000
     atom:   11    charge:    0.4918    magn:   -0.0012    constr:    0.0000
     atom:   12    charge:    0.4909    magn:    0.0001    constr:    0.0000
     atom:   13    charge:    6.4543    magn:    0.3605    constr:    0.0000

     total cpu time spent up to now is      219.9 secs

     The total energy is the sum of the following terms:

     one-electron contribution =    -689.44211317 Ry
     hartree contribution      =     348.99290430 Ry
     xc contribution           =     -30.79360807 Ry
     ewald contribution        =     268.46058250 Ry

     total energy              =    -102.78198628 Ry
     Harris-Foulkes estimate   =    -102.78198646 Ry
     estimated scf accuracy    <       0.00000037 Ry

     total magnetization       =     1.00 Bohr mag/cell
     absolute magnetization    =     1.21 Bohr mag/cell

     iteration #  4     ecut=    90.00 Ry     beta=0.70
     CG style diagonalization
     ethr =  9.98E-10,  avg # of iterations =  6.8
 
     Magnetic moment per site:
     atom:    1    charge:    0.8363    magn:    0.0456    constr:    0.0000
     atom:    2    charge:    0.8367    magn:    0.0458    constr:    0.0000
     atom:    3    charge:    0.8422    magn:   -0.0094    constr:    0.0000
     atom:    4    charge:    0.8391    magn:    0.0249    constr:    0.0000
     atom:    5    charge:    0.8395    magn:    0.0251    constr:    0.0000
     atom:    6    charge:    0.8422    magn:   -0.0094    constr:    0.0000
     atom:    7    charge:    0.4896    magn:   -0.0019    constr:    0.0000
     atom:    8    charge:    0.4897    magn:   -0.0019    constr:    0.0000
     atom:    9    charge:    0.4909    magn:    0.0001    constr:    0.0000
     atom:   10    charge:    0.4917    magn:   -0.0012    constr:    0.0000
     atom:   11    charge:    0.4918    magn:   -0.0012    constr:    0.0000
     atom:   12    charge:    0.4909    magn:    0.0001    constr:    0.0000
     atom:   13    charge:    6.4543    magn:    0.3606    constr:    0.0000

     total cpu time spent up to now is      227.4 secs

     The total energy is the sum of the following terms:

     one-electron contribution =    -689.44688380 Ry
     hartree contribution      =     348.99414047 Ry
     xc contribution           =     -30.79367836 Ry
     ewald contribution        =     268.46058250 Ry

     total energy              =    -102.78198664 Ry
     Harris-Foulkes estimate   =    -102.78198675 Ry
     estimated scf accuracy    <       0.00000049 Ry

     total magnetization       =     1.00 Bohr mag/cell
     absolute magnetization    =     1.21 Bohr mag/cell

     iteration #  5     ecut=    90.00 Ry     beta=0.70
     CG style diagonalization
     ethr =  9.98E-10,  avg # of iterations =  3.1
 
     Magnetic moment per site:
     atom:    1    charge:    0.8363    magn:    0.0455    constr:    0.0000
     atom:    2    charge:    0.8367    magn:    0.0458    constr:    0.0000
     atom:    3    charge:    0.8421    magn:   -0.0094    constr:    0.0000
     atom:    4    charge:    0.8391    magn:    0.0249    constr:    0.0000
     atom:    5    charge:    0.8395    magn:    0.0251    constr:    0.0000
     atom:    6    charge:    0.8421    magn:   -0.0094    constr:    0.0000
     atom:    7    charge:    0.4896    magn:   -0.0019    constr:    0.0000
     atom:    8    charge:    0.4897    magn:   -0.0019    constr:    0.0000
     atom:    9    charge:    0.4908    magn:    0.0001    constr:    0.0000
     atom:   10    charge:    0.4917    magn:   -0.0012    constr:    0.0000
     atom:   11    charge:    0.4918    magn:   -0.0012    constr:    0.0000
     atom:   12    charge:    0.4908    magn:    0.0001    constr:    0.0000
     atom:   13    charge:    6.4542    magn:    0.3607    constr:    0.0000

     total cpu time spent up to now is      231.5 secs

     The total energy is the sum of the following terms:

     one-electron contribution =    -689.44482629 Ry
     hartree contribution      =     348.99444024 Ry
     xc contribution           =     -30.79367857 Ry
     ewald contribution        =     268.46058250 Ry

     total energy              =    -102.78198666 Ry
     Harris-Foulkes estimate   =    -102.78198668 Ry
     estimated scf accuracy    <       0.00000010 Ry

     total magnetization       =     1.00 Bohr mag/cell
     absolute magnetization    =     1.21 Bohr mag/cell

     iteration #  6     ecut=    90.00 Ry     beta=0.70
     CG style diagonalization
     ethr =  2.63E-10,  avg # of iterations =  3.4
 
     Magnetic moment per site:
     atom:    1    charge:    0.8363    magn:    0.0455    constr:    0.0000
     atom:    2    charge:    0.8367    magn:    0.0458    constr:    0.0000
     atom:    3    charge:    0.8422    magn:   -0.0094    constr:    0.0000
     atom:    4    charge:    0.8391    magn:    0.0249    constr:    0.0000
     atom:    5    charge:    0.8395    magn:    0.0251    constr:    0.0000
     atom:    6    charge:    0.8422    magn:   -0.0094    constr:    0.0000
     atom:    7    charge:    0.4896    magn:   -0.0019    constr:    0.0000
     atom:    8    charge:    0.4897    magn:   -0.0019    constr:    0.0000
     atom:    9    charge:    0.4908    magn:    0.0001    constr:    0.0000
     atom:   10    charge:    0.4917    magn:   -0.0012    constr:    0.0000
     atom:   11    charge:    0.4918    magn:   -0.0012    constr:    0.0000
     atom:   12    charge:    0.4908    magn:    0.0001    constr:    0.0000
     atom:   13    charge:    6.4542    magn:    0.3607    constr:    0.0000

     total cpu time spent up to now is      235.9 secs

     The total energy is the sum of the following terms:

     one-electron contribution =    -689.44361984 Ry
     hartree contribution      =     348.99441580 Ry
     xc contribution           =     -30.79366448 Ry
     ewald contribution        =     268.46058250 Ry

     total energy              =    -102.78198667 Ry
     Harris-Foulkes estimate   =    -102.78198667 Ry
     estimated scf accuracy    <       0.00000001 Ry

     total magnetization       =     1.00 Bohr mag/cell
     absolute magnetization    =     1.21 Bohr mag/cell

     iteration #  7     ecut=    90.00 Ry     beta=0.70
     CG style diagonalization
     ethr =  2.73E-11,  avg # of iterations =  4.9
 
     Magnetic moment per site:
     atom:    1    charge:    0.8363    magn:    0.0455    constr:    0.0000
     atom:    2    charge:    0.8367    magn:    0.0457    constr:    0.0000
     atom:    3    charge:    0.8422    magn:   -0.0094    constr:    0.0000
     atom:    4    charge:    0.8391    magn:    0.0249    constr:    0.0000
     atom:    5    charge:    0.8395    magn:    0.0251    constr:    0.0000
     atom:    6    charge:    0.8422    magn:   -0.0094    constr:    0.0000
     atom:    7    charge:    0.4896    magn:   -0.0019    constr:    0.0000
     atom:    8    charge:    0.4897    magn:   -0.0019    constr:    0.0000
     atom:    9    charge:    0.4908    magn:    0.0001    constr:    0.0000
     atom:   10    charge:    0.4917    magn:   -0.0012    constr:    0.0000
     atom:   11    charge:    0.4918    magn:   -0.0012    constr:    0.0000
     atom:   12    charge:    0.4908    magn:    0.0001    constr:    0.0000
     atom:   13    charge:    6.4542    magn:    0.3608    constr:    0.0000

     total cpu time spent up to now is      241.8 secs

     The total energy is the sum of the following terms:

     one-electron contribution =    -689.44344748 Ry
     hartree contribution      =     348.99438711 Ry
     xc contribution           =     -30.79365203 Ry
     ewald contribution        =     268.46058250 Ry

     total energy              =    -102.78198667 Ry
     Harris-Foulkes estimate   =    -102.78198667 Ry
     estimated scf accuracy    <          3.2E-09 Ry

     total magnetization       =     1.00 Bohr mag/cell
     absolute magnetization    =     1.21 Bohr mag/cell

     iteration #  8     ecut=    90.00 Ry     beta=0.70
     CG style diagonalization
     ethr =  8.53E-12,  avg # of iterations =  3.9
 
     Magnetic moment per site:
     atom:    1    charge:    0.8363    magn:    0.0455    constr:    0.0000
     atom:    2    charge:    0.8367    magn:    0.0457    constr:    0.0000
     atom:    3    charge:    0.8422    magn:   -0.0093    constr:    0.0000
     atom:    4    charge:    0.8391    magn:    0.0249    constr:    0.0000
     atom:    5    charge:    0.8395    magn:    0.0251    constr:    0.0000
     atom:    6    charge:    0.8422    magn:   -0.0094    constr:    0.0000
     atom:    7    charge:    0.4896    magn:   -0.0019    constr:    0.0000
     atom:    8    charge:    0.4897    magn:   -0.0019    constr:    0.0000
     atom:    9    charge:    0.4908    magn:    0.0001    constr:    0.0000
     atom:   10    charge:    0.4917    magn:   -0.0012    constr:    0.0000
     atom:   11    charge:    0.4918    magn:   -0.0012    constr:    0.0000
     atom:   12    charge:    0.4908    magn:    0.0001    constr:    0.0000
     atom:   13    charge:    6.4542    magn:    0.3608    constr:    0.0000

     total cpu time spent up to now is      246.6 secs

     The total energy is the sum of the following terms:

     one-electron contribution =    -689.44337860 Ry
     hartree contribution      =     348.99441879 Ry
     xc contribution           =     -30.79365401 Ry
     ewald contribution        =     268.46058250 Ry

     total energy              =    -102.78198667 Ry
     Harris-Foulkes estimate   =    -102.78198667 Ry
     estimated scf accuracy    <          1.5E-10 Ry

     total magnetization       =     1.00 Bohr mag/cell
     absolute magnetization    =     1.21 Bohr mag/cell

     iteration #  9     ecut=    90.00 Ry     beta=0.70
     CG style diagonalization
     ethr =  4.13E-13,  avg # of iterations =  6.0
 
     Magnetic moment per site:
     atom:    1    charge:    0.8363    magn:    0.0455    constr:    0.0000
     atom:    2    charge:    0.8367    magn:    0.0457    constr:    0.0000
     atom:    3    charge:    0.8422    magn:   -0.0093    constr:    0.0000
     atom:    4    charge:    0.8391    magn:    0.0249    constr:    0.0000
     atom:    5    charge:    0.8395    magn:    0.0250    constr:    0.0000
     atom:    6    charge:    0.8422    magn:   -0.0094    constr:    0.0000
     atom:    7    charge:    0.4896    magn:   -0.0019    constr:    0.0000
     atom:    8    charge:    0.4897    magn:   -0.0019    constr:    0.0000
     atom:    9    charge:    0.4908    magn:    0.0001    constr:    0.0000
     atom:   10    charge:    0.4917    magn:   -0.0012    constr:    0.0000
     atom:   11    charge:    0.4918    magn:   -0.0012    constr:    0.0000
     atom:   12    charge:    0.4908    magn:    0.0001    constr:    0.0000
     atom:   13    charge:    6.4542    magn:    0.3608    constr:    0.0000

     total cpu time spent up to now is      253.5 secs

     The total energy is the sum of the following terms:

     one-electron contribution =    -689.44332136 Ry
     hartree contribution      =     348.99441124 Ry
     xc contribution           =     -30.79365317 Ry
     ewald contribution        =     268.46058250 Ry

     total energy              =    -102.78198667 Ry
     Harris-Foulkes estimate   =    -102.78198667 Ry
     estimated scf accuracy    <          2.0E-11 Ry

     total magnetization       =     1.00 Bohr mag/cell
     absolute magnetization    =     1.21 Bohr mag/cell

     iteration # 10     ecut=    90.00 Ry     beta=0.70
     CG style diagonalization
     ethr =  1.00E-13,  avg # of iterations =  4.2
 
     Magnetic moment per site:
     atom:    1    charge:    0.8363    magn:    0.0455    constr:    0.0000
     atom:    2    charge:    0.8367    magn:    0.0457    constr:    0.0000
     atom:    3    charge:    0.8422    magn:   -0.0093    constr:    0.0000
     atom:    4    charge:    0.8391    magn:    0.0249    constr:    0.0000
     atom:    5    charge:    0.8395    magn:    0.0250    constr:    0.0000
     atom:    6    charge:    0.8422    magn:   -0.0094    constr:    0.0000
     atom:    7    charge:    0.4896    magn:   -0.0019    constr:    0.0000
     atom:    8    charge:    0.4897    magn:   -0.0019    constr:    0.0000
     atom:    9    charge:    0.4908    magn:    0.0001    constr:    0.0000
     atom:   10    charge:    0.4917    magn:   -0.0012    constr:    0.0000
     atom:   11    charge:    0.4918    magn:   -0.0012    constr:    0.0000
     atom:   12    charge:    0.4908    magn:    0.0001    constr:    0.0000
     atom:   13    charge:    6.4542    magn:    0.3608    constr:    0.0000

     total cpu time spent up to now is      258.7 secs

     The total energy is the sum of the following terms:

     one-electron contribution =    -689.44334454 Ry
     hartree contribution      =     348.99442056 Ry
     xc contribution           =     -30.79365343 Ry
     ewald contribution        =     268.46058250 Ry

     total energy              =    -102.78198667 Ry
     Harris-Foulkes estimate   =    -102.78198667 Ry
     estimated scf accuracy    <          1.3E-11 Ry

     total magnetization       =     1.00 Bohr mag/cell
     absolute magnetization    =     1.21 Bohr mag/cell

     iteration # 11     ecut=    90.00 Ry     beta=0.70
     CG style diagonalization
     ethr =  1.00E-13,  avg # of iterations =  3.6
 
     Magnetic moment per site:
     atom:    1    charge:    0.8363    magn:    0.0455    constr:    0.0000
     atom:    2    charge:    0.8367    magn:    0.0457    constr:    0.0000
     atom:    3    charge:    0.8422    magn:   -0.0093    constr:    0.0000
     atom:    4    charge:    0.8391    magn:    0.0249    constr:    0.0000
     atom:    5    charge:    0.8395    magn:    0.0250    constr:    0.0000
     atom:    6    charge:    0.8422    magn:   -0.0094    constr:    0.0000
     atom:    7    charge:    0.4896    magn:   -0.0019    constr:    0.0000
     atom:    8    charge:    0.4897    magn:   -0.0019    constr:    0.0000
     atom:    9    charge:    0.4908    magn:    0.0001    constr:    0.0000
     atom:   10    charge:    0.4917    magn:   -0.0012    constr:    0.0000
     atom:   11    charge:    0.4918    magn:   -0.0012    constr:    0.0000
     atom:   12    charge:    0.4908    magn:    0.0001    constr:    0.0000
     atom:   13    charge:    6.4542    magn:    0.3608    constr:    0.0000

     total cpu time spent up to now is      263.3 secs

     The total energy is the sum of the following terms:

     one-electron contribution =    -689.44333001 Ry
     hartree contribution      =     348.99442017 Ry
     xc contribution           =     -30.79365334 Ry
     ewald contribution        =     268.46058250 Ry

     total energy              =    -102.78198667 Ry
     Harris-Foulkes estimate   =    -102.78198667 Ry
     estimated scf accuracy    <          1.3E-12 Ry

     total magnetization       =     1.00 Bohr mag/cell
     absolute magnetization    =     1.21 Bohr mag/cell

     iteration # 12     ecut=    90.00 Ry     beta=0.70
     CG style diagonalization
     ethr =  1.00E-13,  avg # of iterations =  3.3
 
     Magnetic moment per site:
     atom:    1    charge:    0.8363    magn:    0.0455    constr:    0.0000
     atom:    2    charge:    0.8367    magn:    0.0457    constr:    0.0000
     atom:    3    charge:    0.8422    magn:   -0.0093    constr:    0.0000
     atom:    4    charge:    0.8391    magn:    0.0249    constr:    0.0000
     atom:    5    charge:    0.8395    magn:    0.0250    constr:    0.0000
     atom:    6    charge:    0.8422    magn:   -0.0094    constr:    0.0000
     atom:    7    charge:    0.4896    magn:   -0.0019    constr:    0.0000
     atom:    8    charge:    0.4897    magn:   -0.0019    constr:    0.0000
     atom:    9    charge:    0.4908    magn:    0.0001    constr:    0.0000
     atom:   10    charge:    0.4917    magn:   -0.0012    constr:    0.0000
     atom:   11    charge:    0.4918    magn:   -0.0012    constr:    0.0000
     atom:   12    charge:    0.4908    magn:    0.0001    constr:    0.0000
     atom:   13    charge:    6.4542    magn:    0.3608    constr:    0.0000

     total cpu time spent up to now is      267.6 secs

     End of self-consistent calculation

 ------ SPIN UP ------------


          k = 0.0000 0.0000 0.0000 (389220 PWs)   bands (ev):

   -21.2161 -18.6190 -18.4035 -18.2127 -14.7080 -14.6983 -12.6871 -10.9394
   -10.8854 -10.1578  -9.9370  -9.2050  -8.0800  -8.0770  -7.2150  -6.6101
    -6.4418  -6.2372  -5.9695  -1.3605  -1.0113  -0.1380   0.2047   0.2648
     0.2718   0.3285   0.4208   0.4540   0.6341   0.6456   0.7110   0.7132
     0.7227   0.7237   0.8082   0.8243   0.8336   0.8576   0.8614   0.8930

     occupation numbers 
     1.0000   1.0000   1.0000   1.0000   1.0000   1.0000   1.0000   1.0000
     1.0000   1.0000   1.0000   1.0000   1.0000   1.0000   1.0000   1.0000
     1.0000   1.0000   1.0000   0.0000   0.0000   0.0000   0.0000   0.0000
     0.0000   0.0000   0.0000   0.0000   0.0000   0.0000   0.0000   0.0000
     0.0000   0.0000   0.0000   0.0000   0.0000   0.0000   0.0000   0.0000

 ------ SPIN DOWN ----------


          k = 0.0000 0.0000 0.0000 (389220 PWs)   bands (ev):

   -21.0595 -18.3265 -18.1673 -18.0202 -14.6174 -14.5732 -12.6525 -10.8734
   -10.8193 -10.0892  -9.9305  -8.8056  -8.0511  -8.0305  -6.5564  -6.4783
    -6.2932  -5.8455  -5.4731  -0.8418  -0.7748  -0.1266   0.2267   0.2718
     0.2756   0.3349   0.4216   0.4629   0.6434   0.6488   0.7121   0.7179
     0.7235   0.7279   0.8141   0.8321   0.8340   0.8585   0.8627   0.8938

     occupation numbers 
     1.0000   1.0000   1.0000   1.0000   1.0000   1.0000   1.0000   1.0000
     1.0000   1.0000   1.0000   1.0000   1.0000   1.0000   1.0000   1.0000
     1.0000   1.0000   0.0000   0.0000   0.0000   0.0000   0.0000   0.0000
     0.0000   0.0000   0.0000   0.0000   0.0000   0.0000   0.0000   0.0000
     0.0000   0.0000   0.0000   0.0000   0.0000   0.0000   0.0000   0.0000

     highest occupied, lowest unoccupied level (ev):    -5.8455   -5.4731

     The total energy is the sum of the following terms:

     one-electron contribution =    -689.44333265 Ry
     hartree contribution      =     348.99441655 Ry
     xc contribution           =     -30.79365307 Ry
     ewald contribution        =     268.46058250 Ry

!    total energy              =    -102.78198667 Ry
     Harris-Foulkes estimate   =    -102.78198667 Ry
     estimated scf accuracy    <          3.9E-13 Ry

     The total energy is the sum of the following terms:

     one-electron contribution =    -689.44333265 Ry
     hartree contribution      =     348.99441655 Ry
     xc contribution           =     -30.79365307 Ry
     ewald contribution        =     268.46058250 Ry

     total magnetization       =     1.00 Bohr mag/cell
     absolute magnetization    =     1.21 Bohr mag/cell

     convergence has been achieved in  12 iterations
 
     Using Hirshfeld
        Amplitude [Ry a.u.] :  1.1721E-01
        Acceptor Fragment start :          13
        Acceptor Fragment end   :          13
        Donor Fragment start :           1
        Donor Fragment end   :          12
 
 
     Using Hirshfeld
        Amplitude [Ry a.u.] :  1.1721E-01
        Acceptor Fragment start :          13
        Acceptor Fragment end   :          13
        Donor Fragment start :           1
        Donor Fragment end   :          12
 
     E field correction              : -0.2579267152617231E+01 Ry    
 
     Donor charge                    :      0.6576905489359284 e     
     Acceptor charge                 :     -0.3370619809093789 e     
     Difference of charges           :      0.9947525298453108 e     
 
     epcdft_thr                      :  0.1000000000000000E-03 e     
     Surplus(+)/deficit(-) charge    : -0.5247470154689182E-02 e     
 
     -----------------------------------------------
 
                      SCF converged but...
 
     electron localization condition NOT satisfied
     restarting scf with different applied potential
 
     New field Amp                   :  0.1181922450408435E+00 Ry    
     charge density from previous step
 
     Using Hirshfeld
        Amplitude [Ry a.u.] :  1.1819E-01
        Acceptor Fragment start :          13
        Acceptor Fragment end   :          13
        Donor Fragment start :           1
        Donor Fragment end   :          12
 

     total cpu time spent up to now is      279.7 secs

     per-process dynamical memory:    63.4 Mb

     Self-consistent Calculation

     iteration #  1     ecut=    90.00 Ry     beta=0.70
     CG style diagonalization
     ethr =  1.00E-13,  avg # of iterations = 31.3
 
     Magnetic moment per site:
     atom:    1    charge:    0.8360    magn:    0.0458    constr:    0.0000
     atom:    2    charge:    0.8364    magn:    0.0461    constr:    0.0000
     atom:    3    charge:    0.8422    magn:   -0.0094    constr:    0.0000
     atom:    4    charge:    0.8388    magn:    0.0252    constr:    0.0000
     atom:    5    charge:    0.8392    magn:    0.0254    constr:    0.0000
     atom:    6    charge:    0.8422    magn:   -0.0094    constr:    0.0000
     atom:    7    charge:    0.4896    magn:   -0.0019    constr:    0.0000
[...]

     total magnetization       =     1.00 Bohr mag/cell
     absolute magnetization    =     1.21 Bohr mag/cell

     iteration #  5     ecut=    90.00 Ry     beta=0.70
     CG style diagonalization
     ethr =  8.71E-10,  avg # of iterations =  3.1
 
     Magnetic moment per site:
     atom:    1    charge:    0.8363    magn:    0.0457    constr:    0.0000
     atom:    2    charge:    0.8367    magn:    0.0459    constr:    0.0000
     atom:    3    charge:    0.8422    magn:   -0.0094    constr:    0.0000
     atom:    4    charge:    0.8391    magn:    0.0250    constr:    0.0000
     atom:    5    charge:    0.8395    magn:    0.0252    constr:    0.0000
     atom:    6    charge:    0.8422    magn:   -0.0094    constr:    0.0000
     atom:    7    charge:    0.4896    magn:   -0.0019    constr:    0.0000
     atom:    8    charge:    0.4897    magn:   -0.0019    constr:    0.0000
     atom:    9    charge:    0.4908    magn:    0.0001    constr:    0.0000
     atom:   10    charge:    0.4917    magn:   -0.0012    constr:    0.0000
     atom:   11    charge:    0.4918    magn:   -0.0012    constr:    0.0000
     atom:   12    charge:    0.4908    magn:    0.0001    constr:    0.0000
     atom:   13    charge:    6.4557    magn:    0.3584    constr:    0.0000

     total cpu time spent up to now is      332.9 secs

     The total energy is the sum of the following terms:

     one-electron contribution =    -689.41397355 Ry
     hartree contribution      =     348.98844334 Ry
     xc contribution           =     -30.79371155 Ry
     ewald contribution        =     268.46058250 Ry

     total energy              =    -102.76040678 Ry
     Harris-Foulkes estimate   =    -102.76040680 Ry
     estimated scf accuracy    <       0.00000012 Ry

     total magnetization       =     1.00 Bohr mag/cell
     absolute magnetization    =     1.21 Bohr mag/cell

     iteration #  6     ecut=    90.00 Ry     beta=0.70
     CG style diagonalization
     ethr =  3.18E-10,  avg # of iterations =  3.1
 
     Magnetic moment per site:
     atom:    1    charge:    0.8363    magn:    0.0457    constr:    0.0000
     atom:    2    charge:    0.8367    magn:    0.0459    constr:    0.0000
     atom:    3    charge:    0.8422    magn:   -0.0094    constr:    0.0000
     atom:    4    charge:    0.8391    magn:    0.0251    constr:    0.0000
     atom:    5    charge:    0.8395    magn:    0.0252    constr:    0.0000
     atom:    6    charge:    0.8422    magn:   -0.0094    constr:    0.0000
     atom:    7    charge:    0.4896    magn:   -0.0019    constr:    0.0000
     atom:    8    charge:    0.4897    magn:   -0.0019    constr:    0.0000
     atom:    9    charge:    0.4908    magn:    0.0001    constr:    0.0000
     atom:   10    charge:    0.4917    magn:   -0.0012    constr:    0.0000
     atom:   11    charge:    0.4918    magn:   -0.0012    constr:    0.0000
     atom:   12    charge:    0.4908    magn:    0.0001    constr:    0.0000
     atom:   13    charge:    6.4557    magn:    0.3583    constr:    0.0000

     total cpu time spent up to now is      337.0 secs

     The total energy is the sum of the following terms:

     one-electron contribution =    -689.41501299 Ry
     hartree contribution      =     348.98838655 Ry
     xc contribution           =     -30.79372293 Ry
     ewald contribution        =     268.46058250 Ry

     total energy              =    -102.76040679 Ry
     Harris-Foulkes estimate   =    -102.76040679 Ry
     estimated scf accuracy    <       0.00000002 Ry

     total magnetization       =     1.00 Bohr mag/cell
     absolute magnetization    =     1.21 Bohr mag/cell

     iteration #  7     ecut=    90.00 Ry     beta=0.70
     CG style diagonalization
     ethr =  6.18E-11,  avg # of iterations =  4.4
 
     Magnetic moment per site:
     atom:    1    charge:    0.8363    magn:    0.0457    constr:    0.0000
     atom:    2    charge:    0.8367    magn:    0.0459    constr:    0.0000
     atom:    3    charge:    0.8422    magn:   -0.0094    constr:    0.0000
     atom:    4    charge:    0.8391    magn:    0.0251    constr:    0.0000
     atom:    5    charge:    0.8395    magn:    0.0252    constr:    0.0000
     atom:    6    charge:    0.8422    magn:   -0.0094    constr:    0.0000
     atom:    7    charge:    0.4896    magn:   -0.0019    constr:    0.0000
     atom:    8    charge:    0.4897    magn:   -0.0019    constr:    0.0000
     atom:    9    charge:    0.4908    magn:    0.0001    constr:    0.0000
     atom:   10    charge:    0.4917    magn:   -0.0012    constr:    0.0000
     atom:   11    charge:    0.4918    magn:   -0.0012    constr:    0.0000
     atom:   12    charge:    0.4908    magn:    0.0001    constr:    0.0000
     atom:   13    charge:    6.4557    magn:    0.3583    constr:    0.0000

     total cpu time spent up to now is      342.3 secs

     The total energy is the sum of the following terms:

     one-electron contribution =    -689.41547468 Ry
     hartree contribution      =     348.98840892 Ry
     xc contribution           =     -30.79373554 Ry
     ewald contribution        =     268.46058250 Ry

     total energy              =    -102.76040679 Ry
     Harris-Foulkes estimate   =    -102.76040679 Ry
     estimated scf accuracy    <          3.8E-09 Ry

     total magnetization       =     1.00 Bohr mag/cell
     absolute magnetization    =     1.21 Bohr mag/cell

     iteration #  8     ecut=    90.00 Ry     beta=0.70
     CG style diagonalization
     ethr =  1.02E-11,  avg # of iterations =  4.4
 
     Magnetic moment per site:
     atom:    1    charge:    0.8363    magn:    0.0457    constr:    0.0000
     atom:    2    charge:    0.8367    magn:    0.0459    constr:    0.0000
     atom:    3    charge:    0.8422    magn:   -0.0094    constr:    0.0000
     atom:    4    charge:    0.8391    magn:    0.0251    constr:    0.0000
     atom:    5    charge:    0.8395    magn:    0.0252    constr:    0.0000
     atom:    6    charge:    0.8422    magn:   -0.0094    constr:    0.0000
     atom:    7    charge:    0.4896    magn:   -0.0019    constr:    0.0000
     atom:    8    charge:    0.4897    magn:   -0.0019    constr:    0.0000
     atom:    9    charge:    0.4908    magn:    0.0001    constr:    0.0000
     atom:   10    charge:    0.4917    magn:   -0.0012    constr:    0.0000
     atom:   11    charge:    0.4918    magn:   -0.0012    constr:    0.0000
     atom:   12    charge:    0.4908    magn:    0.0001    constr:    0.0000
     atom:   13    charge:    6.4557    magn:    0.3583    constr:    0.0000

     total cpu time spent up to now is      347.6 secs

     The total energy is the sum of the following terms:

     one-electron contribution =    -689.41564053 Ry
     hartree contribution      =     348.98840374 Ry
     xc contribution           =     -30.79373587 Ry
     ewald contribution        =     268.46058250 Ry

     total energy              =    -102.76040679 Ry
     Harris-Foulkes estimate   =    -102.76040679 Ry
     estimated scf accuracy    <          1.9E-10 Ry

     total magnetization       =     1.00 Bohr mag/cell
     absolute magnetization    =     1.21 Bohr mag/cell

     iteration #  9     ecut=    90.00 Ry     beta=0.70
     CG style diagonalization
     ethr =  5.07E-13,  avg # of iterations =  6.2
 
     Magnetic moment per site:
     atom:    1    charge:    0.8363    magn:    0.0457    constr:    0.0000
     atom:    2    charge:    0.8367    magn:    0.0459    constr:    0.0000
     atom:    3    charge:    0.8422    magn:   -0.0094    constr:    0.0000
     atom:    4    charge:    0.8391    magn:    0.0251    constr:    0.0000
     atom:    5    charge:    0.8395    magn:    0.0252    constr:    0.0000
     atom:    6    charge:    0.8422    magn:   -0.0094    constr:    0.0000
     atom:    7    charge:    0.4896    magn:   -0.0019    constr:    0.0000
     atom:    8    charge:    0.4897    magn:   -0.0019    constr:    0.0000
     atom:    9    charge:    0.4908    magn:    0.0001    constr:    0.0000
     atom:   10    charge:    0.4917    magn:   -0.0012    constr:    0.0000
     atom:   11    charge:    0.4918    magn:   -0.0012    constr:    0.0000
     atom:   12    charge:    0.4908    magn:    0.0001    constr:    0.0000
     atom:   13    charge:    6.4557    magn:    0.3583    constr:    0.0000

     total cpu time spent up to now is      354.7 secs

     The total energy is the sum of the following terms:

     one-electron contribution =    -689.41567068 Ry
     hartree contribution      =     348.98840449 Ry
     xc contribution           =     -30.79373649 Ry
     ewald contribution        =     268.46058250 Ry

     total energy              =    -102.76040679 Ry
     Harris-Foulkes estimate   =    -102.76040679 Ry
     estimated scf accuracy    <          4.3E-11 Ry

     total magnetization       =     1.00 Bohr mag/cell
     absolute magnetization    =     1.21 Bohr mag/cell

     iteration # 10     ecut=    90.00 Ry     beta=0.70
     CG style diagonalization
     ethr =  1.15E-13,  avg # of iterations =  4.2
 
     Magnetic moment per site:
     atom:    1    charge:    0.8363    magn:    0.0457    constr:    0.0000
     atom:    2    charge:    0.8367    magn:    0.0459    constr:    0.0000
     atom:    3    charge:    0.8422    magn:   -0.0094    constr:    0.0000
     atom:    4    charge:    0.8391    magn:    0.0251    constr:    0.0000
     atom:    5    charge:    0.8395    magn:    0.0252    constr:    0.0000
     atom:    6    charge:    0.8422    magn:   -0.0094    constr:    0.0000
     atom:    7    charge:    0.4896    magn:   -0.0019    constr:    0.0000
     atom:    8    charge:    0.4897    magn:   -0.0019    constr:    0.0000
     atom:    9    charge:    0.4908    magn:    0.0001    constr:    0.0000
     atom:   10    charge:    0.4917    magn:   -0.0012    constr:    0.0000
     atom:   11    charge:    0.4918    magn:   -0.0012    constr:    0.0000
     atom:   12    charge:    0.4908    magn:    0.0001    constr:    0.0000
     atom:   13    charge:    6.4557    magn:    0.3583    constr:    0.0000

     total cpu time spent up to now is      359.9 secs

     The total energy is the sum of the following terms:

     one-electron contribution =    -689.41565348 Ry
     hartree contribution      =     348.98840388 Ry
     xc contribution           =     -30.79373670 Ry
     ewald contribution        =     268.46058250 Ry

     total energy              =    -102.76040679 Ry
     Harris-Foulkes estimate   =    -102.76040679 Ry
     estimated scf accuracy    <          8.5E-12 Ry

     total magnetization       =     1.00 Bohr mag/cell
     absolute magnetization    =     1.21 Bohr mag/cell

     iteration # 11     ecut=    90.00 Ry     beta=0.70
     CG style diagonalization
     ethr =  1.00E-13,  avg # of iterations =  3.4
 
     Magnetic moment per site:
     atom:    1    charge:    0.8363    magn:    0.0457    constr:    0.0000
     atom:    2    charge:    0.8367    magn:    0.0459    constr:    0.0000
     atom:    3    charge:    0.8422    magn:   -0.0094    constr:    0.0000
     atom:    4    charge:    0.8391    magn:    0.0251    constr:    0.0000
     atom:    5    charge:    0.8395    magn:    0.0252    constr:    0.0000
     atom:    6    charge:    0.8422    magn:   -0.0094    constr:    0.0000
     atom:    7    charge:    0.4896    magn:   -0.0019    constr:    0.0000
     atom:    8    charge:    0.4897    magn:   -0.0019    constr:    0.0000
     atom:    9    charge:    0.4908    magn:    0.0001    constr:    0.0000
     atom:   10    charge:    0.4917    magn:   -0.0012    constr:    0.0000
     atom:   11    charge:    0.4918    magn:   -0.0012    constr:    0.0000
     atom:   12    charge:    0.4908    magn:    0.0001    constr:    0.0000
     atom:   13    charge:    6.4557    magn:    0.3583    constr:    0.0000

     total cpu time spent up to now is      364.3 secs

     The total energy is the sum of the following terms:

     one-electron contribution =    -689.41565260 Ry
     hartree contribution      =     348.98840164 Ry
     xc contribution           =     -30.79373664 Ry
     ewald contribution        =     268.46058250 Ry

     total energy              =    -102.76040679 Ry
     Harris-Foulkes estimate   =    -102.76040679 Ry
     estimated scf accuracy    <          1.3E-12 Ry

     total magnetization       =     1.00 Bohr mag/cell
     absolute magnetization    =     1.21 Bohr mag/cell

     iteration # 12     ecut=    90.00 Ry     beta=0.70
     CG style diagonalization
     ethr =  1.00E-13,  avg # of iterations =  3.3
 
     Magnetic moment per site:
     atom:    1    charge:    0.8363    magn:    0.0457    constr:    0.0000
     atom:    2    charge:    0.8367    magn:    0.0459    constr:    0.0000
     atom:    3    charge:    0.8422    magn:   -0.0094    constr:    0.0000
     atom:    4    charge:    0.8391    magn:    0.0251    constr:    0.0000
     atom:    5    charge:    0.8395    magn:    0.0252    constr:    0.0000
     atom:    6    charge:    0.8422    magn:   -0.0094    constr:    0.0000
     atom:    7    charge:    0.4896    magn:   -0.0019    constr:    0.0000
     atom:    8    charge:    0.4897    magn:   -0.0019    constr:    0.0000
     atom:    9    charge:    0.4908    magn:    0.0001    constr:    0.0000
     atom:   10    charge:    0.4917    magn:   -0.0012    constr:    0.0000
     atom:   11    charge:    0.4918    magn:   -0.0012    constr:    0.0000
     atom:   12    charge:    0.4908    magn:    0.0001    constr:    0.0000
     atom:   13    charge:    6.4557    magn:    0.3583    constr:    0.0000

     total cpu time spent up to now is      368.5 secs

     End of self-consistent calculation

 ------ SPIN UP ------------


          k = 0.0000 0.0000 0.0000 (389220 PWs)   bands (ev):

   -21.2109 -18.6138 -18.3979 -18.2063 -14.7021 -14.6923 -12.6806 -10.9326
   -10.8798 -10.1519  -9.9300  -9.1996  -8.0736  -8.0706  -7.2087  -6.6062
    -6.4387  -6.2319  -5.9638  -1.3557  -1.0047  -0.1357   0.2051   0.2660
     0.2731   0.3295   0.4209   0.4547   0.6340   0.6463   0.7114   0.7143
     0.7235   0.7245   0.8084   0.8259   0.8338   0.8579   0.8617   0.8936

     occupation numbers 
     1.0000   1.0000   1.0000   1.0000   1.0000   1.0000   1.0000   1.0000
     1.0000   1.0000   1.0000   1.0000   1.0000   1.0000   1.0000   1.0000
     1.0000   1.0000   1.0000   0.0000   0.0000   0.0000   0.0000   0.0000
     0.0000   0.0000   0.0000   0.0000   0.0000   0.0000   0.0000   0.0000
     0.0000   0.0000   0.0000   0.0000   0.0000   0.0000   0.0000   0.0000

 ------ SPIN DOWN ----------


          k = 0.0000 0.0000 0.0000 (389220 PWs)   bands (ev):

   -21.0535 -18.3209 -18.1608 -18.0168 -14.6111 -14.5665 -12.6458 -10.8663
   -10.8134 -10.0829  -9.9234  -8.7986  -8.0446  -8.0239  -6.5526  -6.4750
    -6.2909  -5.8396  -5.4681  -0.8344  -0.7670  -0.1244   0.2272   0.2730
     0.2767   0.3361   0.4217   0.4634   0.6435   0.6492   0.7125   0.7190
     0.7247   0.7284   0.8143   0.8334   0.8344   0.8588   0.8630   0.8943

     occupation numbers 
     1.0000   1.0000   1.0000   1.0000   1.0000   1.0000   1.0000   1.0000
     1.0000   1.0000   1.0000   1.0000   1.0000   1.0000   1.0000   1.0000
     1.0000   1.0000   0.0000   0.0000   0.0000   0.0000   0.0000   0.0000
     0.0000   0.0000   0.0000   0.0000   0.0000   0.0000   0.0000   0.0000
     0.0000   0.0000   0.0000   0.0000   0.0000   0.0000   0.0000   0.0000

     highest occupied, lowest unoccupied level (ev):    -5.8396   -5.4681

     The total energy is the sum of the following terms:

     one-electron contribution =    -689.41565467 Ry
     hartree contribution      =     348.98840211 Ry
     xc contribution           =     -30.79373673 Ry
     ewald contribution        =     268.46058250 Ry

!    total energy              =    -102.76040679 Ry
     Harris-Foulkes estimate   =    -102.76040679 Ry
     estimated scf accuracy    <          5.7E-13 Ry

     The total energy is the sum of the following terms:

     one-electron contribution =    -689.41565467 Ry
     hartree contribution      =     348.98840211 Ry
     xc contribution           =     -30.79373673 Ry
     ewald contribution        =     268.46058250 Ry

     total magnetization       =     1.00 Bohr mag/cell
     absolute magnetization    =     1.21 Bohr mag/cell

     convergence has been achieved in  12 iterations
 
     Using Hirshfeld
        Amplitude [Ry a.u.] :  1.1819E-01
        Acceptor Fragment start :          13
        Acceptor Fragment end   :          13
        Donor Fragment start :           1
        Donor Fragment end   :          12
 
 
     Using Hirshfeld
        Amplitude [Ry a.u.] :  1.1819E-01
        Acceptor Fragment start :          13
        Acceptor Fragment end   :          13
        Donor Fragment start :           1
        Donor Fragment end   :          12
 
     E field correction              : -0.2600229474556820E+01 Ry    
 
     Donor charge                    :      0.6603757397114478 e     
     Acceptor charge                 :     -0.3396235524734008 e     
     Difference of charges           :      0.9999992921848495 e     

     Writing output data file left.save
 
     init_run     :     26.66s CPU     26.66s WALL (       1 calls)
     electrons    :    329.41s CPU    329.41s WALL (       3 calls)
     update_pot   :      1.27s CPU      1.27s WALL (       2 calls)

     Called by init_run:
     wfcinit      :      6.04s CPU      6.04s WALL (       1 calls)
     potinit      :      1.41s CPU      1.41s WALL (       1 calls)

     Called by electrons:
     c_bands      :    245.38s CPU    245.38s WALL (      46 calls)
     sum_band     :     13.37s CPU     13.37s WALL (      46 calls)
     v_of_rho     :     29.86s CPU     29.86s WALL (      49 calls)
     v_h          :      0.49s CPU      0.49s WALL (      49 calls)
     v_xc         :     29.37s CPU     29.37s WALL (      49 calls)
     mix_rho      :      1.31s CPU      1.31s WALL (      46 calls)

     Called by c_bands:
     init_us_2    :      0.57s CPU      0.57s WALL (     186 calls)
     rcgdiagg     :    211.10s CPU    211.10s WALL (      99 calls)
     wfcrot       :     36.33s CPU     36.33s WALL (      95 calls)

     Called by sum_band:

     Called by *cgdiagg:
     h_psi        :    214.00s CPU    214.00s WALL (   17908 calls)
     rdiaghg      :      6.88s CPU      6.88s WALL (      95 calls)
     rdiaghg:chol :      0.53s CPU      0.53s WALL (      95 calls)
     rdiaghg:inve :      0.10s CPU      0.10s WALL (      95 calls)
     rdiaghg:para :      0.51s CPU      0.51s WALL (     190 calls)

     Called by h_psi:
     h_psi:vloc   :    186.39s CPU    186.39s WALL (   17908 calls)
     h_psi:vnl    :     27.30s CPU     27.30s WALL (   17908 calls)
     add_vuspsi   :     18.10s CPU     18.11s WALL (   17908 calls)

     General routines
     calbec       :     12.97s CPU     13.00s WALL (   35721 calls)
     fft          :     20.90s CPU     20.90s WALL (    2891 calls)
     fftw         :    173.93s CPU    173.95s WALL (   41602 calls)
 
     Parallel routines
     fft_scatter  :     78.26s CPU     78.26s WALL (   44493 calls)
 
     PWSCF        :  6m54.63s CPU     6m54.63s WALL

 
   This run was terminated on:  22:12:49  22Aug2015            

=------------------------------------------------------------------------------=
   JOB DONE.
=------------------------------------------------------------------------------=
2015-08-22 22:13:07.263 (INFO ) [0xfffb5fdc410] CET-20040-31371-128:1295656:ibm.runjob.client.Job: exited with status 0
2015-08-22 22:13:07.263 (INFO ) [0xfffb5fdc410] tatu.runjob.client: task exited with status 0
2015-08-22 22:13:07.264 (INFO ) [0xfff94a234e0] 13879:tatu.runjob.monitor: monitor terminating
2015-08-22 22:13:07.268 (INFO ) [0xfffb5fdc410] tatu.runjob.client: monitor completed
