2015-08-20 16:52:24.048 (INFO ) [0xfff84b9c410] ibm.runjob.AbstractOptions: using properties file /bgsys/local/etc/bg.properties
2015-08-20 16:52:24.053 (INFO ) [0xfff84b9c410] ibm.runjob.AbstractOptions: max open file descriptors: 65536
2015-08-20 16:52:24.053 (INFO ) [0xfff84b9c410] ibm.runjob.AbstractOptions: core file limit: 18446744073709551615
2015-08-20 16:52:24.055 (INFO ) [0xfff84b9c410] 10443:tatu.runjob.client: scheduler job id is 565211
2015-08-20 16:52:24.064 (INFO ) [0xfffa65434e0] 10443:tatu.runjob.monitor: monitor started
2015-08-20 16:52:28.053 (INFO ) [0xfffa65434e0] 10443:tatu.runjob.monitor: task record 1233443 created
2015-08-20 16:52:28.054 (INFO ) [0xfff84b9c410] CET-40440-51771-128:10443:ibm.runjob.client.options.Parser: set local socket to runjob_mux from properties file
2015-08-20 16:52:31.084 (INFO ) [0xfff84b9c410] CET-40440-51771-128:1292235:ibm.runjob.client.Job: job 1292235 started

     Program PWSCF v.5.1.1 starts on 20Aug2015 at 16:52:31 

     This program is part of the open-source Quantum ESPRESSO suite
     for quantum simulation of materials; please cite
         "P. Giannozzi et al., J. Phys.:Condens. Matter 21 395502 (2009);
          URL http://www.quantum-espresso.org", 
     in publications or presentations arising from this work. More details at
     http://www.quantum-espresso.org/quote

     Parallel version (MPI & OpenMP), running on    1024 processor cores
     Number of MPI processes:              1024
     Threads/MPI process:                     1
     R & G space division:  proc/nbgrp/npool/nimage =    1024
     Waiting for input...
     Reading input from standard input

     Current dimensions of program PWSCF are:
     Max number of different atomic species (ntypx) = 10
     Max number of k-points (npk) =  40000
     Max angular momentum in pseudopotentials (lmaxx) =  3
               file C.pbe-mt_fhi.UPF: wavefunction(s)  4f renormalized
               file H.pbe-mt_fhi.UPF: wavefunction(s)  2p 4f renormalized
               file Cl.pbe-mt_fhi.UPF: wavefunction(s)  4f renormalized

     gamma-point specific algorithms are used
     Message from routine setup:
     the system is metallic, specify occupations

     Subspace diagonalization in iterative solution of the eigenvalue problem:
     scalapack distributed-memory algorithm (size of sub-group: 22* 22 procs)

 
     Parallelization info
     --------------------
     sticks:   dense  smooth     PW     G-vecs:    dense   smooth      PW
     Min          82      82     20                18258    18258    2268
     Max          84      84     22                18316    18316    2314
     Sum       85225   85225  21329             18723953 18723953 2340509
     Tot       42613   42613  10665
 
     Generating pointlists ...
     new r_m :   0.0179 (alat units)  0.8450 (a.u.) for type    1
     new r_m :   0.0179 (alat units)  0.8450 (a.u.) for type    2
     new r_m :   0.0508 (alat units)  2.4011 (a.u.) for type    3
2015-08-20 16:52:37.453 (INFO ) [0xfffa65434e0] 10443:tatu.runjob.monitor: tracklib completed


     bravais-lattice index     =            1
     lattice parameter (alat)  =      47.2432  a.u.
     unit-cell volume          =  105442.7279 (a.u.)^3
     number of atoms/cell      =           13
     number of atomic types    =            3
     number of electrons       =        37.00 (up:  19.00, down:  18.00)
     number of Kohn-Sham states=           40
     kinetic-energy cutoff     =     120.0000  Ry
     charge density cutoff     =     480.0000  Ry
     convergence threshold     =      1.0E-07
     mixing beta               =       0.7000
     number of iterations used =            8  plain     mixing
     Exchange-correlation      = PBE ( 1  4  3  4 0 0)
     Assuming isolated system, Martyna-Tuckerman method


     celldm(1)=  47.243153  celldm(2)=   0.000000  celldm(3)=   0.000000
     celldm(4)=   0.000000  celldm(5)=   0.000000  celldm(6)=   0.000000

     crystal axes: (cart. coord. in units of alat)
               a(1) = (   1.000000   0.000000   0.000000 )  
               a(2) = (   0.000000   1.000000   0.000000 )  
               a(3) = (   0.000000   0.000000   1.000000 )  

     reciprocal axes: (cart. coord. in units 2 pi/alat)
               b(1) = (  1.000000  0.000000  0.000000 )  
               b(2) = (  0.000000  1.000000  0.000000 )  
               b(3) = (  0.000000  0.000000  1.000000 )  


     PseudoPot. # 1 for  C read from file:
     ./C.pbe-mt_fhi.UPF
     MD5 check sum: 058ca341f9d6d5327d9962fd88a91b65
     Pseudo is Norm-conserving, Zval =  4.0
     Generated using FHI98PP, converted with fhi2upf.x v.5.0.2
     Using radial grid of  461 points,  3 beta functions with: 
                l(1) =   0
                l(2) =   1
                l(3) =   3

     PseudoPot. # 2 for  H read from file:
     ./H.pbe-mt_fhi.UPF
     MD5 check sum: a19bd5488733b3d98581df861506e80d
     Pseudo is Norm-conserving, Zval =  1.0
     Generated using FHI98PP, converted with fhi2upf.x v.5.0.2
     Using radial grid of  387 points,  3 beta functions with: 
                l(1) =   0
                l(2) =   1
                l(3) =   3

     PseudoPot. # 3 for Cl read from file:
     ./Cl.pbe-mt_fhi.UPF
     MD5 check sum: 2690b95bbfe21454a1a3af22474751ef
     Pseudo is Norm-conserving, Zval =  7.0
     Generated using FHI98PP, converted with fhi2upf.x v.5.0.2
     Using radial grid of  503 points,  3 beta functions with: 
                l(1) =   0
                l(2) =   1
                l(3) =   3

     atomic species   valence    mass     pseudopotential
        C              4.00    12.01070      C( 1.00)
        H              1.00     1.00794      H( 1.00)
        Cl             7.00     1.00000     Cl( 1.00)

     Starting magnetic structure 
     atomic species   magnetization
        C            0.000
        H            0.000
        Cl           0.000

     No symmetry found


                                    s                        frac. trans.

      isym =  1     identity                                     

 cryst.   s( 1) = (     1          0          0      )
                  (     0          1          0      )
                  (     0          0          1      )

 cart.    s( 1) = (  1.0000000  0.0000000  0.0000000 )
                  (  0.0000000  1.0000000  0.0000000 )
                  (  0.0000000  0.0000000  1.0000000 )


     point group C_1 (1)    
     there are  1 classes
     the character table:

       E    
A      1.00

     the symmetry operations in each class:
     E        1

   Cartesian axes

     site n.     atom                  positions (alat units)
         1           C   tau(   1) = (   0.0000000   0.0558800   0.0000000  )
         2           C   tau(   2) = (   0.0483920   0.0279400   0.0000000  )
         3           C   tau(   3) = (   0.0483920  -0.0279400   0.0000000  )
         4           C   tau(   4) = (   0.0000000  -0.0558800   0.0000000  )
         5           C   tau(   5) = (  -0.0483920  -0.0279400   0.0000000  )
         6           C   tau(   6) = (  -0.0483920   0.0279400   0.0000000  )
         7           H   tau(   7) = (   0.0000000   0.0992400   0.0000000  )
         8           H   tau(   8) = (   0.0859440   0.0496200   0.0000000  )
         9           H   tau(   9) = (   0.0859440  -0.0496200   0.0000000  )
        10           H   tau(  10) = (   0.0000000  -0.0992400   0.0000000  )
        11           H   tau(  11) = (  -0.0859440  -0.0496200   0.0000000  )
        12           H   tau(  12) = (  -0.0859440   0.0496200   0.0000000  )
        13           Cl  tau(  13) = (   0.0241960   0.0419100   0.1200000  )

   Crystallographic axes

     site n.     atom                  positions (cryst. coord.)
         1           C   tau(   1) = (  0.0000000  0.0558800  0.0000000  )
         2           C   tau(   2) = (  0.0483920  0.0279400  0.0000000  )
         3           C   tau(   3) = (  0.0483920 -0.0279400  0.0000000  )
         4           C   tau(   4) = (  0.0000000 -0.0558800  0.0000000  )
         5           C   tau(   5) = ( -0.0483920 -0.0279400  0.0000000  )
         6           C   tau(   6) = ( -0.0483920  0.0279400  0.0000000  )
         7           H   tau(   7) = (  0.0000000  0.0992400  0.0000000  )
         8           H   tau(   8) = (  0.0859440  0.0496200  0.0000000  )
         9           H   tau(   9) = (  0.0859440 -0.0496200  0.0000000  )
        10           H   tau(  10) = (  0.0000000 -0.0992400  0.0000000  )
        11           H   tau(  11) = ( -0.0859440 -0.0496200  0.0000000  )
        12           H   tau(  12) = ( -0.0859440  0.0496200  0.0000000  )
        13           Cl  tau(  13) = (  0.0241960  0.0419100  0.1200000  )

     number of k points=     2
                       cart. coord. in units 2pi/alat
        k(    1) = (   0.0000000   0.0000000   0.0000000), wk =   1.0000000
        k(    2) = (   0.0000000   0.0000000   0.0000000), wk =   1.0000000

                       cryst. coord.
        k(    1) = (   0.0000000   0.0000000   0.0000000), wk =   1.0000000
        k(    2) = (   0.0000000   0.0000000   0.0000000), wk =   1.0000000

     Dense  grid:  9361977 G-vectors     FFT dimensions: ( 336, 336, 336)

     Largest allocated arrays     est. size (Mb)     dimensions
        Kohn-Sham Wavefunctions         0.70 Mb     (    1155,   40)
        NL pseudopotentials             2.52 Mb     (    1155,  143)
        Each V/rho on FFT grid          3.45 Mb     (  112896,   2)
        Each G-vector array             0.07 Mb     (    9154)
        G-vector shells                 0.03 Mb     (    3928)
     Largest temporary arrays     est. size (Mb)     dimensions
        Each subspace H/S matrix        0.00 Mb     (       1,    1)
        Each <psi_i|beta_j> matrix      0.04 Mb     (     143,   40)
        Arrays for rho mixing          13.78 Mb     (  112896,    8)
 
     Using Hirshfeld
        Amplitude [Ry a.u.] :  1.1732E-01
        Acceptor Fragment start :          13
        Acceptor Fragment end   :          13
        Donor Fragment start :           1
        Donor Fragment end   :          12
 

     Initial potential from superposition of free atoms
     Check: negative starting charge=(component1):   -0.004245
     Check: negative starting charge=(component2):   -0.004245

     starting charge   36.99968, renormalised to   37.00000

     negative rho (up, down):  4.245E-03 4.245E-03
     Starting wfc are  208 randomized atomic wfcs

     total cpu time spent up to now is       77.0 secs

     per-process dynamical memory:    73.7 Mb

     Self-consistent Calculation

     iteration #  1     ecut=   120.00 Ry     beta=0.70
     CG style diagonalization
     ethr =  1.00E-02,  avg # of iterations =  5.5

     negative rho (up, down):  1.115E-03 1.115E-03
 
     Magnetic moment per site:
     atom:    1    charge:    0.8544    magn:    0.0329    constr:    0.0000
     atom:    2    charge:    0.8562    magn:    0.0324    constr:    0.0000
     atom:    3    charge:    0.8871    magn:    0.0005    constr:    0.0000
     atom:    4    charge:    0.8595    magn:    0.0260    constr:    0.0000
     atom:    5    charge:    0.8613    magn:    0.0258    constr:    0.0000
     atom:    6    charge:    0.8874    magn:    0.0004    constr:    0.0000
     atom:    7    charge:    0.4406    magn:    0.0006    constr:    0.0000
     atom:    8    charge:    0.4404    magn:    0.0006    constr:    0.0000
     atom:    9    charge:    0.4413    magn:    0.0000    constr:    0.0000
     atom:   10    charge:    0.4408    magn:    0.0005    constr:    0.0000
     atom:   11    charge:    0.4406    magn:    0.0005    constr:    0.0000
     atom:   12    charge:    0.4414    magn:    0.0000    constr:    0.0000
     atom:   13    charge:    6.6573    magn:    0.0948    constr:    0.0000

     total cpu time spent up to now is       94.0 secs

     The total energy is the sum of the following terms:

     one-electron contribution =    -696.02300693 Ry
     hartree contribution      =     351.24703960 Ry
     xc contribution           =     -30.92776568 Ry
     ewald contribution        =     268.46058250 Ry

     total energy              =    -102.48315918 Ry
     Harris-Foulkes estimate   =    -103.26558122 Ry
     estimated scf accuracy    <       1.30949851 Ry

     total magnetization       =     1.00 Bohr mag/cell
     absolute magnetization    =     1.00 Bohr mag/cell

     iteration #  2     ecut=   120.00 Ry     beta=0.70
     CG style diagonalization
     ethr =  3.54E-03,  avg # of iterations =  5.7

     negative rho (up, down):  5.420E-04 5.480E-04
 
     Magnetic moment per site:
     atom:    1    charge:    0.8510    magn:    0.0259    constr:    0.0000
     atom:    2    charge:    0.8524    magn:    0.0255    constr:    0.0000
     atom:    3    charge:    0.8434    magn:   -0.0015    constr:    0.0000
     atom:    4    charge:    0.8574    magn:    0.0174    constr:    0.0000
     atom:    5    charge:    0.8588    magn:    0.0172    constr:    0.0000
     atom:    6    charge:    0.8433    magn:   -0.0015    constr:    0.0000
     atom:    7    charge:    0.4729    magn:   -0.0002    constr:    0.0000
     atom:    8    charge:    0.4727    magn:   -0.0002    constr:    0.0000
     atom:    9    charge:    0.4741    magn:   -0.0001    constr:    0.0000
     atom:   10    charge:    0.4746    magn:   -0.0002    constr:    0.0000
     atom:   11    charge:    0.4744    magn:   -0.0003    constr:    0.0000
     atom:   12    charge:    0.4742    magn:   -0.0001    constr:    0.0000
     atom:   13    charge:    6.2823    magn:    0.3698    constr:    0.0000

     total cpu time spent up to now is      107.9 secs

     The total energy is the sum of the following terms:

     one-electron contribution =    -687.13782614 Ry
     hartree contribution      =     348.95737173 Ry
     xc contribution           =     -30.65896977 Ry
     ewald contribution        =     268.46058250 Ry

     total energy              =    -102.61861976 Ry
     Harris-Foulkes estimate   =    -102.89800353 Ry
     estimated scf accuracy    <       0.49996506 Ry

     total magnetization       =     1.00 Bohr mag/cell
     absolute magnetization    =     1.11 Bohr mag/cell

     iteration #  3     ecut=   120.00 Ry     beta=0.70
     CG style diagonalization
     ethr =  1.35E-03,  avg # of iterations =  4.6

     negative rho (up, down):  2.867E-04 2.892E-04
 
     Magnetic moment per site:
     atom:    1    charge:    0.8373    magn:    0.0323    constr:    0.0000
     atom:    2    charge:    0.8387    magn:    0.0318    constr:    0.0000
     atom:    3    charge:    0.8367    magn:   -0.0028    constr:    0.0000
     atom:    4    charge:    0.8358    magn:    0.0247    constr:    0.0000
     atom:    5    charge:    0.8373    magn:    0.0246    constr:    0.0000
     atom:    6    charge:    0.8366    magn:   -0.0029    constr:    0.0000
     atom:    7    charge:    0.4854    magn:   -0.0002    constr:    0.0000
     atom:    8    charge:    0.4851    magn:   -0.0002    constr:    0.0000
     atom:    9    charge:    0.4879    magn:   -0.0001    constr:    0.0000
     atom:   10    charge:    0.4872    magn:   -0.0001    constr:    0.0000
     atom:   11    charge:    0.4869    magn:   -0.0002    constr:    0.0000
     atom:   12    charge:    0.4879    magn:   -0.0001    constr:    0.0000
     atom:   13    charge:    6.4487    magn:    0.2948    constr:    0.0000

     total cpu time spent up to now is      119.5 secs

     The total energy is the sum of the following terms:

     one-electron contribution =    -687.71416520 Ry
     hartree contribution      =     348.14313438 Ry
     xc contribution           =     -30.68949511 Ry
     ewald contribution        =     268.46058250 Ry

     total energy              =    -102.73363106 Ry
     Harris-Foulkes estimate   =    -102.86162432 Ry
     estimated scf accuracy    <       0.30768946 Ry

     total magnetization       =     1.00 Bohr mag/cell
     absolute magnetization    =     1.11 Bohr mag/cell

     iteration #  4     ecut=   120.00 Ry     beta=0.70
     CG style diagonalization
     ethr =  8.32E-04,  avg # of iterations =  3.5

     negative rho (up, down):  7.435E-05 7.481E-05
 
     Magnetic moment per site:
     atom:    1    charge:    0.8303    magn:    0.0358    constr:    0.0000
     atom:    2    charge:    0.8317    magn:    0.0355    constr:    0.0000
     atom:    3    charge:    0.8408    magn:   -0.0039    constr:    0.0000
     atom:    4    charge:    0.8380    magn:    0.0239    constr:    0.0000
     atom:    5    charge:    0.8395    magn:    0.0238    constr:    0.0000
     atom:    6    charge:    0.8408    magn:   -0.0039    constr:    0.0000
     atom:    7    charge:    0.4912    magn:   -0.0005    constr:    0.0000
     atom:    8    charge:    0.4910    magn:   -0.0005    constr:    0.0000
     atom:    9    charge:    0.4931    magn:   -0.0002    constr:    0.0000
     atom:   10    charge:    0.4937    magn:   -0.0004    constr:    0.0000
     atom:   11    charge:    0.4935    magn:   -0.0005    constr:    0.0000
     atom:   12    charge:    0.4931    magn:   -0.0002    constr:    0.0000
     atom:   13    charge:    6.4438    magn:    0.3474    constr:    0.0000

     total cpu time spent up to now is      128.7 secs

     The total energy is the sum of the following terms:

     one-electron contribution =    -690.04997573 Ry
     hartree contribution      =     348.78576232 Ry
     xc contribution           =     -30.76955382 Ry
     ewald contribution        =     268.46058250 Ry

     total energy              =    -102.77619450 Ry
     Harris-Foulkes estimate   =    -102.78390972 Ry
     estimated scf accuracy    <       0.01691060 Ry

     total magnetization       =     1.00 Bohr mag/cell
     absolute magnetization    =     1.11 Bohr mag/cell

     iteration #  5     ecut=   120.00 Ry     beta=0.70
     CG style diagonalization
     c_bands:  4 eigenvalues not converged
     c_bands:  2 eigenvalues not converged
     ethr =  4.57E-05,  avg # of iterations =  7.9

     negative rho (up, down):  2.973E-05 3.000E-05
 
     Magnetic moment per site:
     atom:    1    charge:    0.8350    magn:    0.0387    constr:    0.0000
     atom:    2    charge:    0.8365    magn:    0.0385    constr:    0.0000
     atom:    3    charge:    0.8416    magn:   -0.0053    constr:    0.0000
     atom:    4    charge:    0.8363    magn:    0.0247    constr:    0.0000
     atom:    5    charge:    0.8378    magn:    0.0246    constr:    0.0000
     atom:    6    charge:    0.8415    magn:   -0.0053    constr:    0.0000
     atom:    7    charge:    0.4910    magn:   -0.0008    constr:    0.0000
     atom:    8    charge:    0.4907    magn:   -0.0008    constr:    0.0000
     atom:    9    charge:    0.4921    magn:   -0.0002    constr:    0.0000
     atom:   10    charge:    0.4932    magn:   -0.0007    constr:    0.0000
     atom:   11    charge:    0.4929    magn:   -0.0007    constr:    0.0000
     atom:   12    charge:    0.4921    magn:   -0.0002    constr:    0.0000
     atom:   13    charge:    6.4499    magn:    0.3501    constr:    0.0000

     total cpu time spent up to now is      147.4 secs

     The total energy is the sum of the following terms:

     one-electron contribution =    -689.51829312 Ry
     hartree contribution      =     348.93483658 Ry
     xc contribution           =     -30.78581633 Ry
     ewald contribution        =     268.46058250 Ry

     total energy              =    -102.78026395 Ry
     Harris-Foulkes estimate   =    -102.78256198 Ry
     estimated scf accuracy    <       0.00608857 Ry

     total magnetization       =     1.00 Bohr mag/cell
     absolute magnetization    =     1.16 Bohr mag/cell

     iteration #  6     ecut=   120.00 Ry     beta=0.70
     CG style diagonalization
     ethr =  1.65E-05,  avg # of iterations =  4.5

     negative rho (up, down):  1.193E-05 1.208E-05
 
     Magnetic moment per site:
     atom:    1    charge:    0.8354    magn:    0.0412    constr:    0.0000
     atom:    2    charge:    0.8369    magn:    0.0410    constr:    0.0000
     atom:    3    charge:    0.8418    magn:   -0.0062    constr:    0.0000
     atom:    4    charge:    0.8383    magn:    0.0249    constr:    0.0000
     atom:    5    charge:    0.8398    magn:    0.0248    constr:    0.0000
     atom:    6    charge:    0.8418    magn:   -0.0063    constr:    0.0000
     atom:    7    charge:    0.4900    magn:   -0.0011    constr:    0.0000
     atom:    8    charge:    0.4897    magn:   -0.0011    constr:    0.0000
     atom:    9    charge:    0.4911    magn:   -0.0002    constr:    0.0000
     atom:   10    charge:    0.4924    magn:   -0.0008    constr:    0.0000
     atom:   11    charge:    0.4922    magn:   -0.0009    constr:    0.0000
     atom:   12    charge:    0.4911    magn:   -0.0002    constr:    0.0000
     atom:   13    charge:    6.4559    magn:    0.3501    constr:    0.0000

     total cpu time spent up to now is      158.6 secs

     The total energy is the sum of the following terms:

     one-electron contribution =    -689.47883655 Ry
     hartree contribution      =     348.96878202 Ry
     xc contribution           =     -30.79216388 Ry
     ewald contribution        =     268.46058250 Ry

     total energy              =    -102.78139313 Ry
     Harris-Foulkes estimate   =    -102.78163052 Ry
     estimated scf accuracy    <       0.00078855 Ry

     total magnetization       =     1.00 Bohr mag/cell
     absolute magnetization    =     1.16 Bohr mag/cell

     iteration #  7     ecut=   120.00 Ry     beta=0.70
     CG style diagonalization
     c_bands:  3 eigenvalues not converged
     c_bands:  1 eigenvalues not converged
     ethr =  2.13E-06,  avg # of iterations =  6.3

     negative rho (up, down):  2.522E-06 2.549E-06
 
     Magnetic moment per site:
     atom:    1    charge:    0.8357    magn:    0.0429    constr:    0.0000
     atom:    2    charge:    0.8372    magn:    0.0428    constr:    0.0000
     atom:    3    charge:    0.8425    magn:   -0.0073    constr:    0.0000
     atom:    4    charge:    0.8385    magn:    0.0248    constr:    0.0000
     atom:    5    charge:    0.8400    magn:    0.0248    constr:    0.0000
     atom:    6    charge:    0.8425    magn:   -0.0073    constr:    0.0000
     atom:    7    charge:    0.4897    magn:   -0.0014    constr:    0.0000
     atom:    8    charge:    0.4895    magn:   -0.0014    constr:    0.0000
     atom:    9    charge:    0.4907    magn:   -0.0001    constr:    0.0000
     atom:   10    charge:    0.4919    magn:   -0.0010    constr:    0.0000
     atom:   11    charge:    0.4916    magn:   -0.0010    constr:    0.0000
     atom:   12    charge:    0.4907    magn:   -0.0001    constr:    0.0000
     atom:   13    charge:    6.4529    magn:    0.3574    constr:    0.0000

     total cpu time spent up to now is      173.8 secs

     The total energy is the sum of the following terms:

     one-electron contribution =    -689.49168423 Ry
     hartree contribution      =     348.99711473 Ry
     xc contribution           =     -30.79343981 Ry
     ewald contribution        =     268.46058250 Ry

     total energy              =    -102.78160480 Ry
     Harris-Foulkes estimate   =    -102.78159430 Ry
     estimated scf accuracy    <       0.00012302 Ry

     total magnetization       =     1.00 Bohr mag/cell
     absolute magnetization    =     1.18 Bohr mag/cell

     iteration #  8     ecut=   120.00 Ry     beta=0.70
     CG style diagonalization
     c_bands:  4 eigenvalues not converged
     c_bands:  3 eigenvalues not converged
     ethr =  3.32E-07,  avg # of iterations =  7.2

     negative rho (up, down):  1.663E-06 1.640E-06
 
     Magnetic moment per site:
     atom:    1    charge:    0.8355    magn:    0.0445    constr:    0.0000
     atom:    2    charge:    0.8369    magn:    0.0444    constr:    0.0000
     atom:    3    charge:    0.8424    magn:   -0.0082    constr:    0.0000
     atom:    4    charge:    0.8384    magn:    0.0250    constr:    0.0000
     atom:    5    charge:    0.8398    magn:    0.0249    constr:    0.0000
     atom:    6    charge:    0.8424    magn:   -0.0083    constr:    0.0000
     atom:    7    charge:    0.4899    magn:   -0.0016    constr:    0.0000
     atom:    8    charge:    0.4896    magn:   -0.0016    constr:    0.0000
     atom:    9    charge:    0.4907    magn:    0.0000    constr:    0.0000
     atom:   10    charge:    0.4919    magn:   -0.0011    constr:    0.0000
     atom:   11    charge:    0.4917    magn:   -0.0011    constr:    0.0000
     atom:   12    charge:    0.4907    magn:    0.0000    constr:    0.0000
     atom:   13    charge:    6.4543    magn:    0.3586    constr:    0.0000

     total cpu time spent up to now is      190.3 secs

     The total energy is the sum of the following terms:

     one-electron contribution =    -689.39930695 Ry
     hartree contribution      =     348.98280871 Ry
     xc contribution           =     -30.79327842 Ry
     ewald contribution        =     268.46058250 Ry

     total energy              =    -102.78165601 Ry
     Harris-Foulkes estimate   =    -102.78165339 Ry
     estimated scf accuracy    <       0.00003760 Ry

     total magnetization       =     1.00 Bohr mag/cell
     absolute magnetization    =     1.19 Bohr mag/cell

     iteration #  9     ecut=   120.00 Ry     beta=0.70
     CG style diagonalization
     c_bands:  3 eigenvalues not converged
     c_bands:  2 eigenvalues not converged
     ethr =  1.02E-07,  avg # of iterations =  7.4
 
     Magnetic moment per site:
     atom:    1    charge:    0.8355    magn:    0.0449    constr:    0.0000
     atom:    2    charge:    0.8370    magn:    0.0448    constr:    0.0000
     atom:    3    charge:    0.8423    magn:   -0.0087    constr:    0.0000
     atom:    4    charge:    0.8383    magn:    0.0249    constr:    0.0000
     atom:    5    charge:    0.8398    magn:    0.0249    constr:    0.0000
     atom:    6    charge:    0.8423    magn:   -0.0087    constr:    0.0000
     atom:    7    charge:    0.4899    magn:   -0.0017    constr:    0.0000
     atom:    8    charge:    0.4897    magn:   -0.0017    constr:    0.0000
     atom:    9    charge:    0.4908    magn:    0.0000    constr:    0.0000
     atom:   10    charge:    0.4921    magn:   -0.0011    constr:    0.0000
     atom:   11    charge:    0.4918    magn:   -0.0011    constr:    0.0000
     atom:   12    charge:    0.4908    magn:    0.0000    constr:    0.0000
     atom:   13    charge:    6.4532    magn:    0.3598    constr:    0.0000

     total cpu time spent up to now is      207.1 secs

     The total energy is the sum of the following terms:

     one-electron contribution =    -689.44200559 Ry
     hartree contribution      =     348.98411898 Ry
     xc contribution           =     -30.79348680 Ry
     ewald contribution        =     268.46058250 Ry

     total energy              =    -102.78167014 Ry
     Harris-Foulkes estimate   =    -102.78167287 Ry
     estimated scf accuracy    <       0.00001445 Ry

     total magnetization       =     1.00 Bohr mag/cell
     absolute magnetization    =     1.20 Bohr mag/cell

     iteration # 10     ecut=   120.00 Ry     beta=0.70
     CG style diagonalization
     c_bands:  2 eigenvalues not converged
     c_bands:  2 eigenvalues not converged
     ethr =  3.90E-08,  avg # of iterations =  6.8

     negative rho (up, down):  5.381E-08 4.929E-08
 
     Magnetic moment per site:
     atom:    1    charge:    0.8355    magn:    0.0452    constr:    0.0000
     atom:    2    charge:    0.8369    magn:    0.0453    constr:    0.0000
     atom:    3    charge:    0.8423    magn:   -0.0090    constr:    0.0000
     atom:    4    charge:    0.8383    magn:    0.0249    constr:    0.0000
     atom:    5    charge:    0.8397    magn:    0.0250    constr:    0.0000
     atom:    6    charge:    0.8424    magn:   -0.0090    constr:    0.0000
     atom:    7    charge:    0.4899    magn:   -0.0018    constr:    0.0000
     atom:    8    charge:    0.4897    magn:   -0.0018    constr:    0.0000
     atom:    9    charge:    0.4908    magn:    0.0001    constr:    0.0000
     atom:   10    charge:    0.4920    magn:   -0.0012    constr:    0.0000
     atom:   11    charge:    0.4918    magn:   -0.0012    constr:    0.0000
     atom:   12    charge:    0.4908    magn:    0.0001    constr:    0.0000
     atom:   13    charge:    6.4534    magn:    0.3597    constr:    0.0000

     total cpu time spent up to now is      222.8 secs

     The total energy is the sum of the following terms:

     one-electron contribution =    -689.42617560 Ry
     hartree contribution      =     348.98276324 Ry
     xc contribution           =     -30.79352066 Ry
     ewald contribution        =     268.46058250 Ry

     total energy              =    -102.78167437 Ry
     Harris-Foulkes estimate   =    -102.78167421 Ry
     estimated scf accuracy    <       0.00000343 Ry

     total magnetization       =     1.00 Bohr mag/cell
     absolute magnetization    =     1.20 Bohr mag/cell

     iteration # 11     ecut=   120.00 Ry     beta=0.70
     CG style diagonalization
     c_bands:  1 eigenvalues not converged
     c_bands:  2 eigenvalues not converged
     ethr =  9.27E-09,  avg # of iterations =  5.8

     negative rho (up, down):  9.247E-08 8.604E-08
 
     Magnetic moment per site:
     atom:    1    charge:    0.8355    magn:    0.0454    constr:    0.0000
     atom:    2    charge:    0.8370    magn:    0.0454    constr:    0.0000
     atom:    3    charge:    0.8424    magn:   -0.0091    constr:    0.0000
     atom:    4    charge:    0.8383    magn:    0.0250    constr:    0.0000
     atom:    5    charge:    0.8398    magn:    0.0250    constr:    0.0000
     atom:    6    charge:    0.8423    magn:   -0.0091    constr:    0.0000
     atom:    7    charge:    0.4899    magn:   -0.0018    constr:    0.0000
     atom:    8    charge:    0.4896    magn:   -0.0018    constr:    0.0000
     atom:    9    charge:    0.4908    magn:    0.0001    constr:    0.0000
     atom:   10    charge:    0.4920    magn:   -0.0012    constr:    0.0000
     atom:   11    charge:    0.4918    magn:   -0.0012    constr:    0.0000
     atom:   12    charge:    0.4908    magn:    0.0001    constr:    0.0000
     atom:   13    charge:    6.4536    magn:    0.3596    constr:    0.0000

     total cpu time spent up to now is      236.5 secs

     The total energy is the sum of the following terms:

     one-electron contribution =    -689.43132360 Ry
     hartree contribution      =     348.98313809 Ry
     xc contribution           =     -30.79363623 Ry
     ewald contribution        =     268.46058250 Ry

     total energy              =    -102.78167525 Ry
     Harris-Foulkes estimate   =    -102.78167524 Ry
     estimated scf accuracy    <       0.00000053 Ry

     total magnetization       =     1.00 Bohr mag/cell
     absolute magnetization    =     1.21 Bohr mag/cell

     iteration # 12     ecut=   120.00 Ry     beta=0.70
     CG style diagonalization
     c_bands:  2 eigenvalues not converged
     c_bands:  2 eigenvalues not converged
     ethr =  1.42E-09,  avg # of iterations =  6.7
 
     Magnetic moment per site:
     atom:    1    charge:    0.8355    magn:    0.0455    constr:    0.0000
     atom:    2    charge:    0.8370    magn:    0.0456    constr:    0.0000
     atom:    3    charge:    0.8423    magn:   -0.0093    constr:    0.0000
     atom:    4    charge:    0.8383    magn:    0.0250    constr:    0.0000
     atom:    5    charge:    0.8398    magn:    0.0250    constr:    0.0000
     atom:    6    charge:    0.8424    magn:   -0.0093    constr:    0.0000
     atom:    7    charge:    0.4899    magn:   -0.0019    constr:    0.0000
     atom:    8    charge:    0.4896    magn:   -0.0019    constr:    0.0000
     atom:    9    charge:    0.4908    magn:    0.0001    constr:    0.0000
     atom:   10    charge:    0.4920    magn:   -0.0012    constr:    0.0000
     atom:   11    charge:    0.4918    magn:   -0.0012    constr:    0.0000
     atom:   12    charge:    0.4908    magn:    0.0001    constr:    0.0000
     atom:   13    charge:    6.4536    magn:    0.3594    constr:    0.0000

     total cpu time spent up to now is      251.9 secs

     End of self-consistent calculation

 ------ SPIN UP ------------


          k = 0.0000 0.0000 0.0000 (****** PWs)   bands (ev):

   -21.2197 -18.6236 -18.4085 -18.2159 -14.7114 -14.7020 -12.6905 -10.9427
   -10.8892 -10.1616  -9.9401  -9.2091  -8.0837  -8.0805  -7.2190  -6.6150
    -6.4474  -6.2415  -5.9739  -1.3632  -1.0135  -0.3119   0.5273   0.5775
     0.5972   0.8820   1.0180   1.1416   1.1473   1.1563   1.1629   1.1750
     1.2000   1.2287   1.2700   1.3297   1.4063   1.4224   1.4291   1.4403

     occupation numbers 
     1.0000   1.0000   1.0000   1.0000   1.0000   1.0000   1.0000   1.0000
     1.0000   1.0000   1.0000   1.0000   1.0000   1.0000   1.0000   1.0000
     1.0000   1.0000   1.0000   0.0000   0.0000   0.0000   0.0000   0.0000
     0.0000   0.0000   0.0000   0.0000   0.0000   0.0000   0.0000   0.0000
     0.0000   0.0000   0.0000   0.0000   0.0000   0.0000   0.0000   0.0000

 ------ SPIN DOWN ----------


          k = 0.0000 0.0000 0.0000 (****** PWs)   bands (ev):

   -21.0629 -18.3307 -18.1701 -18.0269 -14.6206 -14.5764 -12.6558 -10.8765
   -10.8229 -10.0929  -9.9335  -8.8090  -8.0547  -8.0339  -6.5617  -6.4833
    -6.2991  -5.8490  -5.4785  -0.8425  -0.7761  -0.2624   0.5488   0.5967
     0.6112   0.8836   1.0288   1.1440   1.1500   1.1584   1.1654   1.1847
     1.2027   1.2346   1.2777   1.3322   1.4076   1.4233   1.4299   1.4427

     occupation numbers 
     1.0000   1.0000   1.0000   1.0000   1.0000   1.0000   1.0000   1.0000
     1.0000   1.0000   1.0000   1.0000   1.0000   1.0000   1.0000   1.0000
     1.0000   1.0000   0.0000   0.0000   0.0000   0.0000   0.0000   0.0000
     0.0000   0.0000   0.0000   0.0000   0.0000   0.0000   0.0000   0.0000
     0.0000   0.0000   0.0000   0.0000   0.0000   0.0000   0.0000   0.0000

     highest occupied, lowest unoccupied level (ev):    -5.8490   -5.4785

     The total energy is the sum of the following terms:

     one-electron contribution =    -689.43263786 Ry
     hartree contribution      =     348.98413072 Ry
     xc contribution           =     -30.79375084 Ry
     ewald contribution        =     268.46058250 Ry

!    total energy              =    -102.78167547 Ry
     Harris-Foulkes estimate   =    -102.78167544 Ry
     estimated scf accuracy    <       0.00000007 Ry

     The total energy is the sum of the following terms:

     one-electron contribution =    -689.43263786 Ry
     hartree contribution      =     348.98413072 Ry
     xc contribution           =     -30.79375084 Ry
     ewald contribution        =     268.46058250 Ry

     total magnetization       =     1.00 Bohr mag/cell
     absolute magnetization    =     1.21 Bohr mag/cell

     convergence has been achieved in  12 iterations
 
     Using Hirshfeld
        Amplitude [Ry a.u.] :  1.1732E-01
        Acceptor Fragment start :          13
        Acceptor Fragment end   :          13
        Donor Fragment start :           1
        Donor Fragment end   :          12
 
 
     Using Hirshfeld
        Amplitude [Ry a.u.] :  1.1732E-01
        Acceptor Fragment start :          13
        Acceptor Fragment end   :          13
        Donor Fragment start :           1
        Donor Fragment end   :          12
 
     E field correction              : -0.2581062073117749E+01 Ry    
 
     Donor charge                    :      0.6582680309417164 e     
     Acceptor charge                 :     -0.3415438245155267 e     
     Difference of charges           :      0.9998118554572599 e     
 
     epcdft_thr                      :  0.1000000000000000E-03 e     
     Surplus(+)/deficit(-) charge    : -0.1881445427400763E-03 e     
 
     -----------------------------------------------
 
                      SCF converged but...
 
     electron localization condition NOT satisfied
     restarting scf with different applied potential
 
     New field Amp                   :  0.1183200000000000E+00 Ry    
     charge density from previous step
 
     Using Hirshfeld
        Amplitude [Ry a.u.] :  1.1832E-01
        Acceptor Fragment start :          13
        Acceptor Fragment end   :          13
        Donor Fragment start :           1
        Donor Fragment end   :          12
 

     total cpu time spent up to now is      276.0 secs

     per-process dynamical memory:    81.9 Mb

     Self-consistent Calculation

     iteration #  1     ecut=   120.00 Ry     beta=0.70
     CG style diagonalization
     c_bands:  2 eigenvalues not converged
     c_bands:  2 eigenvalues not converged
     ethr =  1.42E-09,  avg # of iterations = 19.7
 
     Magnetic moment per site:
     atom:    1    charge:    0.8351    magn:    0.0459    constr:    0.0000
     atom:    2    charge:    0.8367    magn:    0.0459    constr:    0.0000
     atom:    3    charge:    0.8424    magn:   -0.0093    constr:    0.0000
     atom:    4    charge:    0.8379    magn:    0.0253    constr:    0.0000
     atom:    5    charge:    0.8395    magn:    0.0253    constr:    0.0000
     atom:    6    charge:    0.8423    magn:   -0.0093    constr:    0.0000
     atom:    7    charge:    0.4899    magn:   -0.0019    constr:    0.0000
     atom:    8    charge:    0.4896    magn:   -0.0019    constr:    0.0000
     atom:    9    charge:    0.4908    magn:    0.0001    constr:    0.0000
     atom:   10    charge:    0.4920    magn:   -0.0011    constr:    0.0000
     atom:   11    charge:    0.4918    magn:   -0.0012    constr:    0.0000
     atom:   12    charge:    0.4908    magn:    0.0001    constr:    0.0000
     atom:   13    charge:    6.4604    magn:    0.3530    constr:    0.0000

     total cpu time spent up to now is      320.4 secs

     The total energy is the sum of the following terms:

     one-electron contribution =    -689.37266692 Ry
     hartree contribution      =     348.95790070 Ry
     xc contribution           =     -30.79408119 Ry
     ewald contribution        =     268.46058250 Ry

     total energy              =    -102.75963634 Ry
     Harris-Foulkes estimate   =    -102.75968656 Ry
     estimated scf accuracy    <       0.00007108 Ry

     total magnetization       =     1.00 Bohr mag/cell
     absolute magnetization    =     1.21 Bohr mag/cell

     iteration #  2     ecut=   120.00 Ry     beta=0.70
     CG style diagonalization
     ethr =  1.92E-07,  avg # of iterations =  4.9
 
     Magnetic moment per site:
     atom:    1    charge:    0.8354    magn:    0.0457    constr:    0.0000
     atom:    2    charge:    0.8370    magn:    0.0457    constr:    0.0000
     atom:    3    charge:    0.8424    magn:   -0.0093    constr:    0.0000
     atom:    4    charge:    0.8383    magn:    0.0251    constr:    0.0000
     atom:    5    charge:    0.8398    magn:    0.0251    constr:    0.0000
     atom:    6    charge:    0.8423    magn:   -0.0093    constr:    0.0000
     atom:    7    charge:    0.4899    magn:   -0.0019    constr:    0.0000
     atom:    8    charge:    0.4896    magn:   -0.0019    constr:    0.0000
     atom:    9    charge:    0.4908    magn:    0.0001    constr:    0.0000
     atom:   10    charge:    0.4920    magn:   -0.0012    constr:    0.0000
     atom:   11    charge:    0.4917    magn:   -0.0012    constr:    0.0000
     atom:   12    charge:    0.4908    magn:    0.0001    constr:    0.0000
     atom:   13    charge:    6.4551    magn:    0.3573    constr:    0.0000

     total cpu time spent up to now is      331.9 secs

     The total energy is the sum of the following terms:

     one-electron contribution =    -689.51884894 Ry
     hartree contribution      =     348.97804554 Ry
     xc contribution           =     -30.79376537 Ry
     ewald contribution        =     268.46058250 Ry

     total energy              =    -102.75957909 Ry
     Harris-Foulkes estimate   =    -102.75979027 Ry
     estimated scf accuracy    <       0.00091835 Ry

     total magnetization       =     1.00 Bohr mag/cell
     absolute magnetization    =     1.21 Bohr mag/cell

     iteration #  3     ecut=   120.00 Ry     beta=0.70
     CG style diagonalization
     ethr =  1.92E-07,  avg # of iterations =  4.1
 
     Magnetic moment per site:
     atom:    1    charge:    0.8355    magn:    0.0457    constr:    0.0000
     atom:    2    charge:    0.8370    magn:    0.0458    constr:    0.0000
     atom:    3    charge:    0.8423    magn:   -0.0093    constr:    0.0000
     atom:    4    charge:    0.8383    magn:    0.0251    constr:    0.0000
     atom:    5    charge:    0.8398    magn:    0.0252    constr:    0.0000
     atom:    6    charge:    0.8424    magn:   -0.0094    constr:    0.0000
     atom:    7    charge:    0.4899    magn:   -0.0019    constr:    0.0000
     atom:    8    charge:    0.4896    magn:   -0.0019    constr:    0.0000
     atom:    9    charge:    0.4908    magn:    0.0001    constr:    0.0000
     atom:   10    charge:    0.4920    magn:   -0.0012    constr:    0.0000
     atom:   11    charge:    0.4917    magn:   -0.0012    constr:    0.0000
     atom:   12    charge:    0.4908    magn:    0.0001    constr:    0.0000
     atom:   13    charge:    6.4551    magn:    0.3571    constr:    0.0000

     total cpu time spent up to now is      341.6 secs

     The total energy is the sum of the following terms:

     one-electron contribution =    -689.40394400 Ry
     hartree contribution      =     348.97844709 Ry
     xc contribution           =     -30.79379879 Ry
     ewald contribution        =     268.46058250 Ry

     total energy              =    -102.75967780 Ry
     Harris-Foulkes estimate   =    -102.75967806 Ry
     estimated scf accuracy    <       0.00000073 Ry

     total magnetization       =     1.00 Bohr mag/cell
     absolute magnetization    =     1.21 Bohr mag/cell

     iteration #  4     ecut=   120.00 Ry     beta=0.70
     CG style diagonalization
     c_bands:  1 eigenvalues not converged
     c_bands:  1 eigenvalues not converged
     ethr =  1.97E-09,  avg # of iterations =  7.1
 
     Magnetic moment per site:
     atom:    1    charge:    0.8355    magn:    0.0457    constr:    0.0000
     atom:    2    charge:    0.8370    magn:    0.0458    constr:    0.0000
     atom:    3    charge:    0.8424    magn:   -0.0094    constr:    0.0000
     atom:    4    charge:    0.8383    magn:    0.0251    constr:    0.0000
     atom:    5    charge:    0.8398    magn:    0.0252    constr:    0.0000
     atom:    6    charge:    0.8424    magn:   -0.0094    constr:    0.0000
     atom:    7    charge:    0.4899    magn:   -0.0019    constr:    0.0000
     atom:    8    charge:    0.4896    magn:   -0.0019    constr:    0.0000
     atom:    9    charge:    0.4908    magn:    0.0001    constr:    0.0000
     atom:   10    charge:    0.4920    magn:   -0.0012    constr:    0.0000
     atom:   11    charge:    0.4917    magn:   -0.0012    constr:    0.0000
     atom:   12    charge:    0.4908    magn:    0.0001    constr:    0.0000
     atom:   13    charge:    6.4552    magn:    0.3569    constr:    0.0000

     total cpu time spent up to now is      357.9 secs

     The total energy is the sum of the following terms:

     one-electron contribution =    -689.39987531 Ry
     hartree contribution      =     348.97717732 Ry
     xc contribution           =     -30.79373527 Ry
     ewald contribution        =     268.46058250 Ry

     total energy              =    -102.75967816 Ry
     Harris-Foulkes estimate   =    -102.75967827 Ry
     estimated scf accuracy    <       0.00000056 Ry

     total magnetization       =     1.00 Bohr mag/cell
     absolute magnetization    =     1.21 Bohr mag/cell

     iteration #  5     ecut=   120.00 Ry     beta=0.70
     CG style diagonalization
     c_bands:  1 eigenvalues not converged
     ethr =  1.53E-09,  avg # of iterations =  3.4
 
     Magnetic moment per site:
     atom:    1    charge:    0.8355    magn:    0.0457    constr:    0.0000
     atom:    2    charge:    0.8370    magn:    0.0458    constr:    0.0000
     atom:    3    charge:    0.8424    magn:   -0.0094    constr:    0.0000
     atom:    4    charge:    0.8383    magn:    0.0251    constr:    0.0000
     atom:    5    charge:    0.8398    magn:    0.0252    constr:    0.0000
     atom:    6    charge:    0.8424    magn:   -0.0094    constr:    0.0000
     atom:    7    charge:    0.4899    magn:   -0.0019    constr:    0.0000
     atom:    8    charge:    0.4896    magn:   -0.0019    constr:    0.0000
     atom:    9    charge:    0.4908    magn:    0.0001    constr:    0.0000
     atom:   10    charge:    0.4920    magn:   -0.0012    constr:    0.0000
     atom:   11    charge:    0.4917    magn:   -0.0012    constr:    0.0000
     atom:   12    charge:    0.4908    magn:    0.0001    constr:    0.0000
     atom:   13    charge:    6.4552    magn:    0.3569    constr:    0.0000

     total cpu time spent up to now is      366.2 secs

     The total energy is the sum of the following terms:

     one-electron contribution =    -689.40190183 Ry
     hartree contribution      =     348.97685817 Ry
     xc contribution           =     -30.79374051 Ry
     ewald contribution        =     268.46058250 Ry

     total energy              =    -102.75967819 Ry
     Harris-Foulkes estimate   =    -102.75967820 Ry
     estimated scf accuracy    <       0.00000010 Ry

     total magnetization       =     1.00 Bohr mag/cell
     absolute magnetization    =     1.21 Bohr mag/cell

     iteration #  6     ecut=   120.00 Ry     beta=0.70
     CG style diagonalization
     c_bands:  1 eigenvalues not converged
     c_bands:  1 eigenvalues not converged
     ethr =  2.83E-10,  avg # of iterations =  5.1
 
     Magnetic moment per site:
     atom:    1    charge:    0.8355    magn:    0.0458    constr:    0.0000
     atom:    2    charge:    0.8370    magn:    0.0459    constr:    0.0000
     atom:    3    charge:    0.8424    magn:   -0.0094    constr:    0.0000
     atom:    4    charge:    0.8383    magn:    0.0252    constr:    0.0000
     atom:    5    charge:    0.8398    magn:    0.0252    constr:    0.0000
     atom:    6    charge:    0.8424    magn:   -0.0094    constr:    0.0000
     atom:    7    charge:    0.4899    magn:   -0.0019    constr:    0.0000
     atom:    8    charge:    0.4896    magn:   -0.0019    constr:    0.0000
     atom:    9    charge:    0.4908    magn:    0.0001    constr:    0.0000
     atom:   10    charge:    0.4920    magn:   -0.0012    constr:    0.0000
     atom:   11    charge:    0.4917    magn:   -0.0012    constr:    0.0000
     atom:   12    charge:    0.4908    magn:    0.0001    constr:    0.0000
     atom:   13    charge:    6.4553    magn:    0.3567    constr:    0.0000

     total cpu time spent up to now is      378.2 secs

     End of self-consistent calculation

 ------ SPIN UP ------------


          k = 0.0000 0.0000 0.0000 (****** PWs)   bands (ev):

   -21.2145 -18.6182 -18.4026 -18.2094 -14.7056 -14.6959 -12.6840 -10.9360
   -10.8836 -10.1558  -9.9331  -9.2037  -8.0773  -8.0741  -7.2124  -6.6108
    -6.4439  -6.2362  -5.9677  -1.3588  -1.0064  -0.3175   0.5352   0.5740
     0.5937   0.8877   1.0216   1.1487   1.1538   1.1628   1.1695   1.1824
     1.2089   1.2352   1.2760   1.3346   1.4116   1.4293   1.4360   1.4466

     occupation numbers 
     1.0000   1.0000   1.0000   1.0000   1.0000   1.0000   1.0000   1.0000
     1.0000   1.0000   1.0000   1.0000   1.0000   1.0000   1.0000   1.0000
     1.0000   1.0000   1.0000   0.0000   0.0000   0.0000   0.0000   0.0000
     0.0000   0.0000   0.0000   0.0000   0.0000   0.0000   0.0000   0.0000
     0.0000   0.0000   0.0000   0.0000   0.0000   0.0000   0.0000   0.0000

 ------ SPIN DOWN ----------


          k = 0.0000 0.0000 0.0000 (****** PWs)   bands (ev):

   -21.0568 -18.3248 -18.1637 -18.0232 -14.6144 -14.5697 -12.6491 -10.8695
   -10.8170 -10.0866  -9.9266  -8.8020  -8.0482  -8.0273  -6.5576  -6.4799
    -6.2966  -5.8433  -5.4731  -0.8356  -0.7677  -0.2679   0.5567   0.5935
     0.6080   0.8894   1.0325   1.1507   1.1563   1.1647   1.1719   1.1926
     1.2114   1.2415   1.2835   1.3372   1.4131   1.4302   1.4369   1.4484

     occupation numbers 
     1.0000   1.0000   1.0000   1.0000   1.0000   1.0000   1.0000   1.0000
     1.0000   1.0000   1.0000   1.0000   1.0000   1.0000   1.0000   1.0000
     1.0000   1.0000   0.0000   0.0000   0.0000   0.0000   0.0000   0.0000
     0.0000   0.0000   0.0000   0.0000   0.0000   0.0000   0.0000   0.0000
     0.0000   0.0000   0.0000   0.0000   0.0000   0.0000   0.0000   0.0000

     highest occupied, lowest unoccupied level (ev):    -5.8433   -5.4731

     The total energy is the sum of the following terms:

     one-electron contribution =    -689.40308891 Ry
     hartree contribution      =     348.97660216 Ry
     xc contribution           =     -30.79377395 Ry
     ewald contribution        =     268.46058250 Ry

!    total energy              =    -102.75967819 Ry
     Harris-Foulkes estimate   =    -102.75967820 Ry
     estimated scf accuracy    <       0.00000001 Ry

     The total energy is the sum of the following terms:

     one-electron contribution =    -689.40308891 Ry
     hartree contribution      =     348.97660216 Ry
     xc contribution           =     -30.79377395 Ry
     ewald contribution        =     268.46058250 Ry

     total magnetization       =     1.00 Bohr mag/cell
     absolute magnetization    =     1.21 Bohr mag/cell

     convergence has been achieved in   6 iterations
 
     Using Hirshfeld
        Amplitude [Ry a.u.] :  1.1832E-01
        Acceptor Fragment start :          13
        Acceptor Fragment end   :          13
        Donor Fragment start :           1
        Donor Fragment end   :          12
 
 
     Using Hirshfeld
        Amplitude [Ry a.u.] :  1.1832E-01
        Acceptor Fragment start :          13
        Acceptor Fragment end   :          13
        Donor Fragment start :           1
        Donor Fragment end   :          12
 
     E field correction              : -0.2602390071090904E+01 Ry    
 
     Donor charge                    :      0.6611704909856186 e     
     Acceptor charge                 :     -0.3443224849196111 e     
     Difference of charges           :      1.0054929759052058 e     
 
     epcdft_thr                      :  0.1000000000000000E-03 e     
     Surplus(+)/deficit(-) charge    :  0.5492975905205810E-02 e     
 
     -----------------------------------------------
 
                      SCF converged but...
 
     electron localization condition NOT satisfied
     restarting scf with different applied potential
 
     New field Amp                   :  0.1173531175063905E+00 Ry    
     charge density from previous step
 
     Using Hirshfeld
        Amplitude [Ry a.u.] :  1.1735E-01
        Acceptor Fragment start :          13
        Acceptor Fragment end   :          13
        Donor Fragment start :           1
        Donor Fragment end   :          12
 

     total cpu time spent up to now is      401.9 secs

     per-process dynamical memory:    81.9 Mb

     Self-consistent Calculation

     iteration #  1     ecut=   120.00 Ry     beta=0.70
     CG style diagonalization
     c_bands:  4 eigenvalues not converged
     c_bands:  4 eigenvalues not converged
     ethr =  2.83E-10,  avg # of iterations = 20.8
 
     Magnetic moment per site:
     atom:    1    charge:    0.8358    magn:    0.0454    constr:    0.0000
     atom:    2    charge:    0.8373    magn:    0.0455    constr:    0.0000
     atom:    3    charge:    0.8424    magn:   -0.0094    constr:    0.0000
     atom:    4    charge:    0.8386    magn:    0.0248    constr:    0.0000
     atom:    5    charge:    0.8401    magn:    0.0249    constr:    0.0000
     atom:    6    charge:    0.8424    magn:   -0.0094    constr:    0.0000
     atom:    7    charge:    0.4899    magn:   -0.0019    constr:    0.0000
     atom:    8    charge:    0.4896    magn:   -0.0019    constr:    0.0000
     atom:    9    charge:    0.4908    magn:    0.0001    constr:    0.0000
     atom:   10    charge:    0.4920    magn:   -0.0012    constr:    0.0000
     atom:   11    charge:    0.4917    magn:   -0.0012    constr:    0.0000
     atom:   12    charge:    0.4908    magn:    0.0001    constr:    0.0000
     atom:   13    charge:    6.4483    magn:    0.3632    constr:    0.0000

     total cpu time spent up to now is      448.0 secs

     The total energy is the sum of the following terms:

     one-electron contribution =    -689.46181199 Ry
     hartree contribution      =     349.00240705 Ry
     xc contribution           =     -30.79333828 Ry
     ewald contribution        =     268.46058250 Ry

     total energy              =    -102.78090249 Ry
     Harris-Foulkes estimate   =    -102.78095577 Ry
     estimated scf accuracy    <       0.00007471 Ry

     total magnetization       =     1.00 Bohr mag/cell
     absolute magnetization    =     1.21 Bohr mag/cell

     iteration #  2     ecut=   120.00 Ry     beta=0.70
     CG style diagonalization
     ethr =  2.02E-07,  avg # of iterations =  4.8
 
     Magnetic moment per site:
     atom:    1    charge:    0.8355    magn:    0.0456    constr:    0.0000
     atom:    2    charge:    0.8370    magn:    0.0457    constr:    0.0000
     atom:    3    charge:    0.8424    magn:   -0.0094    constr:    0.0000
     atom:    4    charge:    0.8383    magn:    0.0250    constr:    0.0000
     atom:    5    charge:    0.8397    magn:    0.0251    constr:    0.0000
     atom:    6    charge:    0.8424    magn:   -0.0094    constr:    0.0000
     atom:    7    charge:    0.4899    magn:   -0.0019    constr:    0.0000
     atom:    8    charge:    0.4896    magn:   -0.0019    constr:    0.0000
     atom:    9    charge:    0.4908    magn:    0.0001    constr:    0.0000
     atom:   10    charge:    0.4920    magn:   -0.0012    constr:    0.0000
     atom:   11    charge:    0.4918    magn:   -0.0012    constr:    0.0000
     atom:   12    charge:    0.4908    magn:    0.0001    constr:    0.0000
     atom:   13    charge:    6.4537    magn:    0.3589    constr:    0.0000

     total cpu time spent up to now is      459.2 secs

     The total energy is the sum of the following terms:

     one-electron contribution =    -689.31520582 Ry
     hartree contribution      =     348.98199423 Ry
     xc contribution           =     -30.79367898 Ry
     ewald contribution        =     268.46058250 Ry

     total energy              =    -102.78084649 Ry
     Harris-Foulkes estimate   =    -102.78106524 Ry
     estimated scf accuracy    <       0.00094306 Ry

     total magnetization       =     1.00 Bohr mag/cell
     absolute magnetization    =     1.21 Bohr mag/cell

     iteration #  3     ecut=   120.00 Ry     beta=0.70
     CG style diagonalization
     ethr =  2.02E-07,  avg # of iterations =  4.0
 
     Magnetic moment per site:
     atom:    1    charge:    0.8354    magn:    0.0456    constr:    0.0000
     atom:    2    charge:    0.8369    magn:    0.0457    constr:    0.0000
     atom:    3    charge:    0.8424    magn:   -0.0094    constr:    0.0000
     atom:    4    charge:    0.8383    magn:    0.0250    constr:    0.0000
     atom:    5    charge:    0.8398    magn:    0.0251    constr:    0.0000
     atom:    6    charge:    0.8424    magn:   -0.0094    constr:    0.0000
     atom:    7    charge:    0.4899    magn:   -0.0019    constr:    0.0000
     atom:    8    charge:    0.4897    magn:   -0.0019    constr:    0.0000
     atom:    9    charge:    0.4908    magn:    0.0001    constr:    0.0000
     atom:   10    charge:    0.4920    magn:   -0.0012    constr:    0.0000
     atom:   11    charge:    0.4918    magn:   -0.0012    constr:    0.0000
     atom:   12    charge:    0.4908    magn:    0.0001    constr:    0.0000
     atom:   13    charge:    6.4538    magn:    0.3590    constr:    0.0000

     total cpu time spent up to now is      468.9 secs

     The total energy is the sum of the following terms:

     one-electron contribution =    -689.42921239 Ry
     hartree contribution      =     348.98148152 Ry
     xc contribution           =     -30.79365061 Ry
     ewald contribution        =     268.46058250 Ry

     total energy              =    -102.78094658 Ry
     Harris-Foulkes estimate   =    -102.78094674 Ry
     estimated scf accuracy    <       0.00000033 Ry

     total magnetization       =     1.00 Bohr mag/cell
     absolute magnetization    =     1.21 Bohr mag/cell

     iteration #  4     ecut=   120.00 Ry     beta=0.70
     CG style diagonalization
     c_bands:  2 eigenvalues not converged
     c_bands:  2 eigenvalues not converged
     ethr =  8.83E-10,  avg # of iterations =  8.2
 
     Magnetic moment per site:
     atom:    1    charge:    0.8355    magn:    0.0456    constr:    0.0000
     atom:    2    charge:    0.8370    magn:    0.0457    constr:    0.0000
     atom:    3    charge:    0.8424    magn:   -0.0094    constr:    0.0000
     atom:    4    charge:    0.8383    magn:    0.0250    constr:    0.0000
     atom:    5    charge:    0.8398    magn:    0.0251    constr:    0.0000
     atom:    6    charge:    0.8424    magn:   -0.0094    constr:    0.0000
     atom:    7    charge:    0.4899    magn:   -0.0019    constr:    0.0000
     atom:    8    charge:    0.4896    magn:   -0.0019    constr:    0.0000
     atom:    9    charge:    0.4908    magn:    0.0001    constr:    0.0000
     atom:   10    charge:    0.4920    magn:   -0.0012    constr:    0.0000
     atom:   11    charge:    0.4918    magn:   -0.0012    constr:    0.0000
     atom:   12    charge:    0.4908    magn:    0.0001    constr:    0.0000
     atom:   13    charge:    6.4538    magn:    0.3591    constr:    0.0000

     total cpu time spent up to now is      487.5 secs

     The total energy is the sum of the following terms:

     one-electron contribution =    -689.43442580 Ry
     hartree contribution      =     348.98269170 Ry
     xc contribution           =     -30.79371824 Ry
     ewald contribution        =     268.46058250 Ry

     total energy              =    -102.78094694 Ry
     Harris-Foulkes estimate   =    -102.78094706 Ry
     estimated scf accuracy    <       0.00000048 Ry

     total magnetization       =     1.00 Bohr mag/cell
     absolute magnetization    =     1.21 Bohr mag/cell

     iteration #  5     ecut=   120.00 Ry     beta=0.70
     CG style diagonalization
     ethr =  8.83E-10,  avg # of iterations =  3.1
 
     Magnetic moment per site:
     atom:    1    charge:    0.8355    magn:    0.0456    constr:    0.0000
     atom:    2    charge:    0.8370    magn:    0.0457    constr:    0.0000
     atom:    3    charge:    0.8423    magn:   -0.0094    constr:    0.0000
     atom:    4    charge:    0.8383    magn:    0.0250    constr:    0.0000
     atom:    5    charge:    0.8398    magn:    0.0251    constr:    0.0000
     atom:    6    charge:    0.8423    magn:   -0.0094    constr:    0.0000
     atom:    7    charge:    0.4899    magn:   -0.0019    constr:    0.0000
     atom:    8    charge:    0.4896    magn:   -0.0019    constr:    0.0000
     atom:    9    charge:    0.4908    magn:    0.0001    constr:    0.0000
     atom:   10    charge:    0.4920    magn:   -0.0012    constr:    0.0000
     atom:   11    charge:    0.4918    magn:   -0.0012    constr:    0.0000
     atom:   12    charge:    0.4908    magn:    0.0001    constr:    0.0000
     atom:   13    charge:    6.4535    magn:    0.3594    constr:    0.0000

     total cpu time spent up to now is      495.2 secs

     End of self-consistent calculation

 ------ SPIN UP ------------


          k = 0.0000 0.0000 0.0000 (****** PWs)   bands (ev):

   -21.2201 -18.6232 -18.4075 -18.2159 -14.7118 -14.7021 -12.6907 -10.9429
   -10.8895 -10.1620  -9.9403  -9.2094  -8.0839  -8.0808  -7.2180  -6.6139
    -6.4459  -6.2415  -5.9732  -1.3642  -1.0130  -0.3121   0.5271   0.5772
     0.5969   0.8822   1.0180   1.1418   1.1475   1.1565   1.1631   1.1752
     1.2000   1.2288   1.2701   1.3297   1.4063   1.4227   1.4293   1.4405

     occupation numbers 
     1.0000   1.0000   1.0000   1.0000   1.0000   1.0000   1.0000   1.0000
     1.0000   1.0000   1.0000   1.0000   1.0000   1.0000   1.0000   1.0000
     1.0000   1.0000   1.0000   0.0000   0.0000   0.0000   0.0000   0.0000
     0.0000   0.0000   0.0000   0.0000   0.0000   0.0000   0.0000   0.0000
     0.0000   0.0000   0.0000   0.0000   0.0000   0.0000   0.0000   0.0000

 ------ SPIN DOWN ----------


          k = 0.0000 0.0000 0.0000 (****** PWs)   bands (ev):

   -21.0631 -18.3305 -18.1705 -18.0257 -14.6210 -14.5765 -12.6560 -10.8767
   -10.8232 -10.0931  -9.9337  -8.8090  -8.0549  -8.0341  -6.5610  -6.4825
    -6.2980  -5.8492  -5.4778  -0.8432  -0.7754  -0.2624   0.5487   0.5965
     0.6111   0.8838   1.0288   1.1441   1.1503   1.1586   1.1656   1.1848
     1.2026   1.2348   1.2778   1.3322   1.4077   1.4236   1.4302   1.4424

     occupation numbers 
     1.0000   1.0000   1.0000   1.0000   1.0000   1.0000   1.0000   1.0000
     1.0000   1.0000   1.0000   1.0000   1.0000   1.0000   1.0000   1.0000
     1.0000   1.0000   0.0000   0.0000   0.0000   0.0000   0.0000   0.0000
     0.0000   0.0000   0.0000   0.0000   0.0000   0.0000   0.0000   0.0000
     0.0000   0.0000   0.0000   0.0000   0.0000   0.0000   0.0000   0.0000

     highest occupied, lowest unoccupied level (ev):    -5.8492   -5.4778

     The total energy is the sum of the following terms:

     one-electron contribution =    -689.43239553 Ry
     hartree contribution      =     348.98459763 Ry
     xc contribution           =     -30.79373150 Ry
     ewald contribution        =     268.46058250 Ry

!    total energy              =    -102.78094691 Ry
     Harris-Foulkes estimate   =    -102.78094698 Ry
     estimated scf accuracy    <       0.00000010 Ry

     The total energy is the sum of the following terms:

     one-electron contribution =    -689.43239553 Ry
     hartree contribution      =     348.98459763 Ry
     xc contribution           =     -30.79373150 Ry
     ewald contribution        =     268.46058250 Ry

     total magnetization       =     1.00 Bohr mag/cell
     absolute magnetization    =     1.21 Bohr mag/cell

     convergence has been achieved in   5 iterations
 
     Using Hirshfeld
        Amplitude [Ry a.u.] :  1.1735E-01
        Acceptor Fragment start :          13
        Acceptor Fragment end   :          13
        Donor Fragment start :           1
        Donor Fragment end   :          12
 
 
     Using Hirshfeld
        Amplitude [Ry a.u.] :  1.1735E-01
        Acceptor Fragment start :          13
        Acceptor Fragment end   :          13
        Donor Fragment start :           1
        Donor Fragment end   :          12
 
     E field correction              : -0.2581808847185981E+01 Ry    
 
     Donor charge                    :      0.6582004953869003 e     
     Acceptor charge                 :     -0.3414564200299566 e     
     Difference of charges           :      0.9996569154168320 e     
 
     epcdft_thr                      :  0.1000000000000000E-03 e     
     Surplus(+)/deficit(-) charge    : -0.3430845831680074E-03 e     
 
     -----------------------------------------------
 
                      SCF converged but...
 
     electron localization condition NOT satisfied
     restarting scf with different applied potential
 
     New field Amp                   :  0.1174099576433208E+00 Ry    
     charge density from previous step
 
     Using Hirshfeld
        Amplitude [Ry a.u.] :  1.1741E-01
        Acceptor Fragment start :          13
        Acceptor Fragment end   :          13
        Donor Fragment start :           1
        Donor Fragment end   :          12
 

     total cpu time spent up to now is      518.9 secs

     per-process dynamical memory:    81.9 Mb

     Self-consistent Calculation

     iteration #  1     ecut=   120.00 Ry     beta=0.70
     CG style diagonalization
     c_bands:  3 eigenvalues not converged
     ethr =  8.83E-10,  avg # of iterations = 10.6
 
     Magnetic moment per site:
     atom:    1    charge:    0.8354    magn:    0.0457    constr:    0.0000
     atom:    2    charge:    0.8369    magn:    0.0458    constr:    0.0000
     atom:    3    charge:    0.8424    magn:   -0.0094    constr:    0.0000
     atom:    4    charge:    0.8382    magn:    0.0251    constr:    0.0000
     atom:    5    charge:    0.8397    magn:    0.0251    constr:    0.0000
     atom:    6    charge:    0.8424    magn:   -0.0094    constr:    0.0000
     atom:    7    charge:    0.4899    magn:   -0.0019    constr:    0.0000
     atom:    8    charge:    0.4896    magn:   -0.0019    constr:    0.0000
     atom:    9    charge:    0.4908    magn:    0.0001    constr:    0.0000
     atom:   10    charge:    0.4920    magn:   -0.0012    constr:    0.0000
     atom:   11    charge:    0.4918    magn:   -0.0012    constr:    0.0000
     atom:   12    charge:    0.4908    magn:    0.0001    constr:    0.0000
     atom:   13    charge:    6.4551    magn:    0.3580    constr:    0.0000

     total cpu time spent up to now is      544.0 secs

     The total energy is the sum of the following terms:

     one-electron contribution =    -689.42035248 Ry
     hartree contribution      =     348.97704916 Ry
     xc contribution           =     -30.79373649 Ry
     ewald contribution        =     268.46058250 Ry

     total energy              =    -102.77969373 Ry
     Harris-Foulkes estimate   =    -102.77969705 Ry
     estimated scf accuracy    <       0.00000448 Ry

     total magnetization       =     1.00 Bohr mag/cell
     absolute magnetization    =     1.21 Bohr mag/cell

     iteration #  2     ecut=   120.00 Ry     beta=0.70
     CG style diagonalization
     ethr =  1.21E-08,  avg # of iterations =  4.7
 
     Magnetic moment per site:
     atom:    1    charge:    0.8355    magn:    0.0456    constr:    0.0000
     atom:    2    charge:    0.8370    magn:    0.0457    constr:    0.0000
     atom:    3    charge:    0.8424    magn:   -0.0094    constr:    0.0000
     atom:    4    charge:    0.8383    magn:    0.0250    constr:    0.0000
     atom:    5    charge:    0.8398    magn:    0.0251    constr:    0.0000
     atom:    6    charge:    0.8424    magn:   -0.0094    constr:    0.0000
     atom:    7    charge:    0.4899    magn:   -0.0019    constr:    0.0000
     atom:    8    charge:    0.4896    magn:   -0.0019    constr:    0.0000
     atom:    9    charge:    0.4908    magn:    0.0001    constr:    0.0000
     atom:   10    charge:    0.4920    magn:   -0.0012    constr:    0.0000
     atom:   11    charge:    0.4918    magn:   -0.0012    constr:    0.0000
     atom:   12    charge:    0.4908    magn:    0.0001    constr:    0.0000
     atom:   13    charge:    6.4538    magn:    0.3591    constr:    0.0000

     total cpu time spent up to now is      555.0 secs

     The total energy is the sum of the following terms:

     one-electron contribution =    -689.45950964 Ry
     hartree contribution      =     348.98235830 Ry
     xc contribution           =     -30.79367548 Ry
     ewald contribution        =     268.46058250 Ry

     total energy              =    -102.77969027 Ry
     Harris-Foulkes estimate   =    -102.77970392 Ry
     estimated scf accuracy    <       0.00006043 Ry

     total magnetization       =     1.00 Bohr mag/cell
     absolute magnetization    =     1.21 Bohr mag/cell

     iteration #  3     ecut=   120.00 Ry     beta=0.70
     CG style diagonalization
     ethr =  1.21E-08,  avg # of iterations =  4.1
 
     Magnetic moment per site:
     atom:    1    charge:    0.8356    magn:    0.0456    constr:    0.0000
     atom:    2    charge:    0.8370    magn:    0.0457    constr:    0.0000
     atom:    3    charge:    0.8423    magn:   -0.0094    constr:    0.0000
     atom:    4    charge:    0.8383    magn:    0.0250    constr:    0.0000
     atom:    5    charge:    0.8398    magn:    0.0251    constr:    0.0000
     atom:    6    charge:    0.8423    magn:   -0.0094    constr:    0.0000
     atom:    7    charge:    0.4899    magn:   -0.0019    constr:    0.0000
     atom:    8    charge:    0.4896    magn:   -0.0019    constr:    0.0000
     atom:    9    charge:    0.4908    magn:    0.0001    constr:    0.0000
     atom:   10    charge:    0.4920    magn:   -0.0012    constr:    0.0000
     atom:   11    charge:    0.4917    magn:   -0.0012    constr:    0.0000
     atom:   12    charge:    0.4908    magn:    0.0001    constr:    0.0000
     atom:   13    charge:    6.4538    magn:    0.3591    constr:    0.0000

     total cpu time spent up to now is      564.8 secs

     End of self-consistent calculation

 ------ SPIN UP ------------


          k = 0.0000 0.0000 0.0000 (****** PWs)   bands (ev):

   -21.2196 -18.6231 -18.4077 -18.2153 -14.7112 -14.7015 -12.6902 -10.9424
   -10.8889 -10.1615  -9.9396  -9.2089  -8.0833  -8.0802  -7.2180  -6.6142
    -6.4465  -6.2413  -5.9729  -1.3636  -1.0124  -0.3125   0.5277   0.5769
     0.5966   0.8825   1.0182   1.1422   1.1479   1.1569   1.1634   1.1756
     1.2005   1.2292   1.2705   1.3300   1.4066   1.4231   1.4297   1.4408

     occupation numbers 
     1.0000   1.0000   1.0000   1.0000   1.0000   1.0000   1.0000   1.0000
     1.0000   1.0000   1.0000   1.0000   1.0000   1.0000   1.0000   1.0000
     1.0000   1.0000   1.0000   0.0000   0.0000   0.0000   0.0000   0.0000
     0.0000   0.0000   0.0000   0.0000   0.0000   0.0000   0.0000   0.0000
     0.0000   0.0000   0.0000   0.0000   0.0000   0.0000   0.0000   0.0000

 ------ SPIN DOWN ----------


          k = 0.0000 0.0000 0.0000 (****** PWs)   bands (ev):

   -21.0625 -18.3301 -18.1699 -18.0262 -14.6204 -14.5759 -12.6554 -10.8762
   -10.8226 -10.0926  -9.9331  -8.8085  -8.0544  -8.0335  -6.5610  -6.4828
    -6.2985  -5.8488  -5.4777  -0.8425  -0.7749  -0.2629   0.5493   0.5961
     0.6108   0.8841   1.0290   1.1445   1.1506   1.1590   1.1660   1.1853
     1.2032   1.2352   1.2781   1.3325   1.4080   1.4240   1.4306   1.4427

     occupation numbers 
     1.0000   1.0000   1.0000   1.0000   1.0000   1.0000   1.0000   1.0000
     1.0000   1.0000   1.0000   1.0000   1.0000   1.0000   1.0000   1.0000
     1.0000   1.0000   0.0000   0.0000   0.0000   0.0000   0.0000   0.0000
     0.0000   0.0000   0.0000   0.0000   0.0000   0.0000   0.0000   0.0000
     0.0000   0.0000   0.0000   0.0000   0.0000   0.0000   0.0000   0.0000

     highest occupied, lowest unoccupied level (ev):    -5.8488   -5.4777

     The total energy is the sum of the following terms:

     one-electron contribution =    -689.43042865 Ry
     hartree contribution      =     348.98392212 Ry
     xc contribution           =     -30.79377242 Ry
     ewald contribution        =     268.46058250 Ry

!    total energy              =    -102.77969645 Ry
     Harris-Foulkes estimate   =    -102.77969650 Ry
     estimated scf accuracy    <       0.00000006 Ry

     The total energy is the sum of the following terms:

     one-electron contribution =    -689.43042865 Ry
     hartree contribution      =     348.98392212 Ry
     xc contribution           =     -30.79377242 Ry
     ewald contribution        =     268.46058250 Ry

     total magnetization       =     1.00 Bohr mag/cell
     absolute magnetization    =     1.21 Bohr mag/cell

     convergence has been achieved in   3 iterations
 
     Using Hirshfeld
        Amplitude [Ry a.u.] :  1.1741E-01
        Acceptor Fragment start :          13
        Acceptor Fragment end   :          13
        Donor Fragment start :           1
        Donor Fragment end   :          12
 
 
     Using Hirshfeld
        Amplitude [Ry a.u.] :  1.1741E-01
        Acceptor Fragment start :          13
        Acceptor Fragment end   :          13
        Donor Fragment start :           1
        Donor Fragment end   :          12
 
     E field correction              : -0.2582975960690352E+01 Ry    
 
     Donor charge                    :      0.6585598031359794 e     
     Acceptor charge                 :     -0.3418073502433367 e     
     Difference of charges           :      1.0003671533793117 e     
 
     epcdft_thr                      :  0.1000000000000000E-03 e     
     Surplus(+)/deficit(-) charge    :  0.3671533793117021E-03 e     
 
     -----------------------------------------------
 
                      SCF converged but...
 
     electron localization condition NOT satisfied
     restarting scf with different applied potential
 
     New field Amp                   :  0.1173805744654889E+00 Ry    
     charge density from previous step
 
     Using Hirshfeld
        Amplitude [Ry a.u.] :  1.1738E-01
        Acceptor Fragment start :          13
        Acceptor Fragment end   :          13
        Donor Fragment start :           1
        Donor Fragment end   :          12
 

     total cpu time spent up to now is      588.4 secs

     per-process dynamical memory:    81.9 Mb

     Self-consistent Calculation

     iteration #  1     ecut=   120.00 Ry     beta=0.70
     CG style diagonalization
     ethr =  1.21E-08,  avg # of iterations =  2.2

     Threshold (ethr) on eigenvalues was too large:
     Diagonalizing with lowered threshold

     CG style diagonalization
     ethr =  7.42E-10,  avg # of iterations =  4.4
 
     Magnetic moment per site:
     atom:    1    charge:    0.8354    magn:    0.0456    constr:    0.0000
     atom:    2    charge:    0.8369    magn:    0.0457    constr:    0.0000
     atom:    3    charge:    0.8424    magn:   -0.0094    constr:    0.0000
     atom:    4    charge:    0.8383    magn:    0.0250    constr:    0.0000
     atom:    5    charge:    0.8398    magn:    0.0251    constr:    0.0000
     atom:    6    charge:    0.8424    magn:   -0.0094    constr:    0.0000
     atom:    7    charge:    0.4899    magn:   -0.0019    constr:    0.0000
     atom:    8    charge:    0.4896    magn:   -0.0019    constr:    0.0000
     atom:    9    charge:    0.4908    magn:    0.0001    constr:    0.0000
     atom:   10    charge:    0.4920    magn:   -0.0012    constr:    0.0000
     atom:   11    charge:    0.4918    magn:   -0.0012    constr:    0.0000
     atom:   12    charge:    0.4908    magn:    0.0001    constr:    0.0000
     atom:   13    charge:    6.4538    magn:    0.3591    constr:    0.0000

     total cpu time spent up to now is      606.5 secs

     The total energy is the sum of the following terms:

     one-electron contribution =    -689.42784617 Ry
     hartree contribution      =     348.98152151 Ry
     xc contribution           =     -30.79363197 Ry
     ewald contribution        =     268.46058250 Ry

     total energy              =    -102.78034272 Ry
     Harris-Foulkes estimate   =    -102.78034301 Ry
     estimated scf accuracy    <       0.00000037 Ry

     total magnetization       =     1.00 Bohr mag/cell
     absolute magnetization    =     1.21 Bohr mag/cell

     iteration #  2     ecut=   120.00 Ry     beta=0.70
     CG style diagonalization
     ethr =  1.01E-09,  avg # of iterations =  4.2
 
     Magnetic moment per site:
     atom:    1    charge:    0.8355    magn:    0.0456    constr:    0.0000
     atom:    2    charge:    0.8370    magn:    0.0457    constr:    0.0000
     atom:    3    charge:    0.8424    magn:   -0.0094    constr:    0.0000
     atom:    4    charge:    0.8383    magn:    0.0250    constr:    0.0000
     atom:    5    charge:    0.8398    magn:    0.0251    constr:    0.0000
     atom:    6    charge:    0.8424    magn:   -0.0094    constr:    0.0000
     atom:    7    charge:    0.4899    magn:   -0.0019    constr:    0.0000
     atom:    8    charge:    0.4896    magn:   -0.0019    constr:    0.0000
     atom:    9    charge:    0.4908    magn:    0.0001    constr:    0.0000
     atom:   10    charge:    0.4920    magn:   -0.0012    constr:    0.0000
     atom:   11    charge:    0.4918    magn:   -0.0012    constr:    0.0000
     atom:   12    charge:    0.4908    magn:    0.0001    constr:    0.0000
     atom:   13    charge:    6.4537    magn:    0.3592    constr:    0.0000

     total cpu time spent up to now is      616.5 secs

     The total energy is the sum of the following terms:

     one-electron contribution =    -689.43355892 Ry
     hartree contribution      =     348.98280032 Ry
     xc contribution           =     -30.79367028 Ry
     ewald contribution        =     268.46058250 Ry

     total energy              =    -102.78034274 Ry
     Harris-Foulkes estimate   =    -102.78034314 Ry
     estimated scf accuracy    <       0.00000102 Ry

     total magnetization       =     1.00 Bohr mag/cell
     absolute magnetization    =     1.21 Bohr mag/cell

     iteration #  3     ecut=   120.00 Ry     beta=0.70
     CG style diagonalization
     ethr =  1.01E-09,  avg # of iterations =  3.6
 
     Magnetic moment per site:
     atom:    1    charge:    0.8355    magn:    0.0456    constr:    0.0000
     atom:    2    charge:    0.8370    magn:    0.0457    constr:    0.0000
     atom:    3    charge:    0.8424    magn:   -0.0094    constr:    0.0000
     atom:    4    charge:    0.8383    magn:    0.0250    constr:    0.0000
     atom:    5    charge:    0.8398    magn:    0.0251    constr:    0.0000
     atom:    6    charge:    0.8424    magn:   -0.0094    constr:    0.0000
     atom:    7    charge:    0.4899    magn:   -0.0019    constr:    0.0000
     atom:    8    charge:    0.4896    magn:   -0.0019    constr:    0.0000
     atom:    9    charge:    0.4908    magn:    0.0001    constr:    0.0000
     atom:   10    charge:    0.4920    magn:   -0.0012    constr:    0.0000
     atom:   11    charge:    0.4918    magn:   -0.0012    constr:    0.0000
     atom:   12    charge:    0.4908    magn:    0.0001    constr:    0.0000
     atom:   13    charge:    6.4538    magn:    0.3591    constr:    0.0000

     total cpu time spent up to now is      625.3 secs

     The total energy is the sum of the following terms:

     one-electron contribution =    -689.42918136 Ry
     hartree contribution      =     348.98267945 Ry
     xc contribution           =     -30.79368942 Ry
     ewald contribution        =     268.46058250 Ry

     total energy              =    -102.78034291 Ry
     Harris-Foulkes estimate   =    -102.78034294 Ry
     estimated scf accuracy    <       0.00000011 Ry

     total magnetization       =     1.00 Bohr mag/cell
     absolute magnetization    =     1.21 Bohr mag/cell

     iteration #  4     ecut=   120.00 Ry     beta=0.70
     CG style diagonalization
     ethr =  2.89E-10,  avg # of iterations =  3.3
 
     Magnetic moment per site:
     atom:    1    charge:    0.8355    magn:    0.0456    constr:    0.0000
     atom:    2    charge:    0.8370    magn:    0.0457    constr:    0.0000
     atom:    3    charge:    0.8423    magn:   -0.0094    constr:    0.0000
     atom:    4    charge:    0.8383    magn:    0.0250    constr:    0.0000
     atom:    5    charge:    0.8398    magn:    0.0251    constr:    0.0000
     atom:    6    charge:    0.8423    magn:   -0.0094    constr:    0.0000
     atom:    7    charge:    0.4899    magn:   -0.0019    constr:    0.0000
     atom:    8    charge:    0.4896    magn:   -0.0019    constr:    0.0000
     atom:    9    charge:    0.4908    magn:    0.0001    constr:    0.0000
     atom:   10    charge:    0.4920    magn:   -0.0012    constr:    0.0000
[...]
 
     Magnetic moment per site:
     atom:    1    charge:    0.8356    magn:    0.0456    constr:    0.0000
     atom:    2    charge:    0.8370    magn:    0.0457    constr:    0.0000
     atom:    3    charge:    0.8424    magn:   -0.0094    constr:    0.0000
     atom:    4    charge:    0.8383    magn:    0.0250    constr:    0.0000
     atom:    5    charge:    0.8397    magn:    0.0251    constr:    0.0000
     atom:    6    charge:    0.8424    magn:   -0.0094    constr:    0.0000
     atom:    7    charge:    0.4899    magn:   -0.0019    constr:    0.0000
     atom:    8    charge:    0.4896    magn:   -0.0019    constr:    0.0000
     atom:    9    charge:    0.4908    magn:    0.0001    constr:    0.0000
     atom:   10    charge:    0.4920    magn:   -0.0012    constr:    0.0000
     atom:   11    charge:    0.4917    magn:   -0.0012    constr:    0.0000
     atom:   12    charge:    0.4908    magn:    0.0001    constr:    0.0000
     atom:   13    charge:    6.4536    magn:    0.3593    constr:    0.0000

     total cpu time spent up to now is      848.5 secs

     The total energy is the sum of the following terms:

     one-electron contribution =    -689.43433724 Ry
     hartree contribution      =     348.98503638 Ry
     xc contribution           =     -30.79379875 Ry
     ewald contribution        =     268.46058250 Ry

     total energy              =    -102.78127581 Ry
     Harris-Foulkes estimate   =    -102.78127629 Ry
     estimated scf accuracy    <       0.00000059 Ry

     total magnetization       =     1.00 Bohr mag/cell
     absolute magnetization    =     1.21 Bohr mag/cell

     iteration #  2     ecut=   120.00 Ry     beta=0.70
     CG style diagonalization
     ethr =  1.59E-09,  avg # of iterations =  4.8
 
     Magnetic moment per site:
     atom:    1    charge:    0.8355    magn:    0.0456    constr:    0.0000
     atom:    2    charge:    0.8370    magn:    0.0457    constr:    0.0000
     atom:    3    charge:    0.8424    magn:   -0.0094    constr:    0.0000
     atom:    4    charge:    0.8383    magn:    0.0250    constr:    0.0000
     atom:    5    charge:    0.8398    magn:    0.0251    constr:    0.0000
     atom:    6    charge:    0.8424    magn:   -0.0094    constr:    0.0000
     atom:    7    charge:    0.4899    magn:   -0.0019    constr:    0.0000
     atom:    8    charge:    0.4896    magn:   -0.0019    constr:    0.0000
     atom:    9    charge:    0.4908    magn:    0.0001    constr:    0.0000
     atom:   10    charge:    0.4920    magn:   -0.0012    constr:    0.0000
     atom:   11    charge:    0.4918    magn:   -0.0012    constr:    0.0000
     atom:   12    charge:    0.4908    magn:    0.0001    constr:    0.0000
     atom:   13    charge:    6.4537    magn:    0.3592    constr:    0.0000

     total cpu time spent up to now is      859.8 secs

     The total energy is the sum of the following terms:

     one-electron contribution =    -689.42690791 Ry
     hartree contribution      =     348.98337333 Ry
     xc contribution           =     -30.79373287 Ry
     ewald contribution        =     268.46058250 Ry

     total energy              =    -102.78127589 Ry
     Harris-Foulkes estimate   =    -102.78127658 Ry
     estimated scf accuracy    <       0.00000172 Ry

     total magnetization       =     1.00 Bohr mag/cell
     absolute magnetization    =     1.21 Bohr mag/cell

     iteration #  3     ecut=   120.00 Ry     beta=0.70
     CG style diagonalization
     ethr =  1.59E-09,  avg # of iterations =  3.6
 
     Magnetic moment per site:
     atom:    1    charge:    0.8355    magn:    0.0456    constr:    0.0000
     atom:    2    charge:    0.8370    magn:    0.0457    constr:    0.0000
     atom:    3    charge:    0.8423    magn:   -0.0094    constr:    0.0000
     atom:    4    charge:    0.8383    magn:    0.0250    constr:    0.0000
     atom:    5    charge:    0.8398    magn:    0.0251    constr:    0.0000
     atom:    6    charge:    0.8424    magn:   -0.0094    constr:    0.0000
     atom:    7    charge:    0.4899    magn:   -0.0019    constr:    0.0000
     atom:    8    charge:    0.4896    magn:   -0.0019    constr:    0.0000
     atom:    9    charge:    0.4908    magn:    0.0001    constr:    0.0000
     atom:   10    charge:    0.4920    magn:   -0.0012    constr:    0.0000
     atom:   11    charge:    0.4918    magn:   -0.0012    constr:    0.0000
     atom:   12    charge:    0.4908    magn:    0.0001    constr:    0.0000
     atom:   13    charge:    6.4535    magn:    0.3594    constr:    0.0000

     total cpu time spent up to now is      868.5 secs

     End of self-consistent calculation

 ------ SPIN UP ------------


          k = 0.0000 0.0000 0.0000 (****** PWs)   bands (ev):

   -21.2198 -18.6231 -18.4075 -18.2158 -14.7116 -14.7019 -12.6907 -10.9429
   -10.8892 -10.1618  -9.9402  -9.2091  -8.0837  -8.0807  -7.2179  -6.6139
    -6.4460  -6.2413  -5.9731  -1.3639  -1.0129  -0.3120   0.5270   0.5772
     0.5969   0.8821   1.0179   1.1417   1.1474   1.1564   1.1630   1.1751
     1.1998   1.2287   1.2700   1.3296   1.4062   1.4226   1.4292   1.4404

     occupation numbers 
     1.0000   1.0000   1.0000   1.0000   1.0000   1.0000   1.0000   1.0000
     1.0000   1.0000   1.0000   1.0000   1.0000   1.0000   1.0000   1.0000
     1.0000   1.0000   1.0000   0.0000   0.0000   0.0000   0.0000   0.0000
     0.0000   0.0000   0.0000   0.0000   0.0000   0.0000   0.0000   0.0000
     0.0000   0.0000   0.0000   0.0000   0.0000   0.0000   0.0000   0.0000

 ------ SPIN DOWN ----------


          k = 0.0000 0.0000 0.0000 (****** PWs)   bands (ev):

   -21.0628 -18.3303 -18.1703 -18.0257 -14.6208 -14.5763 -12.6559 -10.8767
   -10.8230 -10.0929  -9.9337  -8.8089  -8.0548  -8.0340  -6.5608  -6.4825
    -6.2980  -5.8491  -5.4777  -0.8430  -0.7754  -0.2624   0.5487   0.5965
     0.6110   0.8837   1.0288   1.1440   1.1502   1.1585   1.1655   1.1847
     1.2025   1.2347   1.2777   1.3321   1.4076   1.4235   1.4301   1.4423

     occupation numbers 
     1.0000   1.0000   1.0000   1.0000   1.0000   1.0000   1.0000   1.0000
     1.0000   1.0000   1.0000   1.0000   1.0000   1.0000   1.0000   1.0000
     1.0000   1.0000   0.0000   0.0000   0.0000   0.0000   0.0000   0.0000
     0.0000   0.0000   0.0000   0.0000   0.0000   0.0000   0.0000   0.0000
     0.0000   0.0000   0.0000   0.0000   0.0000   0.0000   0.0000   0.0000

     highest occupied, lowest unoccupied level (ev):    -5.8491   -5.4777

     The total energy is the sum of the following terms:

     one-electron contribution =    -689.43140941 Ry
     hartree contribution      =     348.98318279 Ry
     xc contribution           =     -30.79363206 Ry
     ewald contribution        =     268.46058250 Ry

!    total energy              =    -102.78127618 Ry
     Harris-Foulkes estimate   =    -102.78127622 Ry
     estimated scf accuracy    <       0.00000004 Ry

     The total energy is the sum of the following terms:

     one-electron contribution =    -689.43140941 Ry
     hartree contribution      =     348.98318279 Ry
     xc contribution           =     -30.79363206 Ry
     ewald contribution        =     268.46058250 Ry

     total magnetization       =     1.00 Bohr mag/cell
     absolute magnetization    =     1.21 Bohr mag/cell

     convergence has been achieved in   3 iterations
 
     Using Hirshfeld
        Amplitude [Ry a.u.] :  1.1734E-01
        Acceptor Fragment start :          13
        Acceptor Fragment end   :          13
        Donor Fragment start :           1
        Donor Fragment end   :          12
 
 
     Using Hirshfeld
        Amplitude [Ry a.u.] :  1.1734E-01
        Acceptor Fragment start :          13
        Acceptor Fragment end   :          13
        Donor Fragment start :           1
        Donor Fragment end   :          12
 
     E field correction              : -0.2581478144417829E+01 Ry    
 
     Donor charge                    :      0.6582043899992307 e     
     Acceptor charge                 :     -0.3414649380158927 e     
     Difference of charges           :      0.9996693280150986 e     
 
     epcdft_thr                      :  0.1000000000000000E-03 e     
     Surplus(+)/deficit(-) charge    : -0.3306719849014428E-03 e     
 
     -----------------------------------------------
 
                      SCF converged but...
 
     electron localization condition NOT satisfied
     restarting scf with different applied potential
 
     New field Amp                   :  0.1173449374555593E+00 Ry    
     charge density from previous step
 
     Using Hirshfeld
        Amplitude [Ry a.u.] :  1.1734E-01
        Acceptor Fragment start :          13
        Acceptor Fragment end   :          13
        Donor Fragment start :           1
        Donor Fragment end   :          12
 

     total cpu time spent up to now is      892.0 secs

     per-process dynamical memory:    81.9 Mb

     Self-consistent Calculation

     iteration #  1     ecut=   120.00 Ry     beta=0.70
     CG style diagonalization
     ethr =  1.59E-09,  avg # of iterations =  2.8
 
     Magnetic moment per site:
     atom:    1    charge:    0.8355    magn:    0.0456    constr:    0.0000
     atom:    2    charge:    0.8369    magn:    0.0457    constr:    0.0000
     atom:    3    charge:    0.8424    magn:   -0.0094    constr:    0.0000
     atom:    4    charge:    0.8383    magn:    0.0250    constr:    0.0000
     atom:    5    charge:    0.8397    magn:    0.0251    constr:    0.0000
     atom:    6    charge:    0.8424    magn:   -0.0094    constr:    0.0000
     atom:    7    charge:    0.4899    magn:   -0.0019    constr:    0.0000
     atom:    8    charge:    0.4896    magn:   -0.0019    constr:    0.0000
     atom:    9    charge:    0.4908    magn:    0.0001    constr:    0.0000
     atom:   10    charge:    0.4920    magn:   -0.0012    constr:    0.0000
     atom:   11    charge:    0.4918    magn:   -0.0012    constr:    0.0000
     atom:   12    charge:    0.4908    magn:    0.0001    constr:    0.0000
     atom:   13    charge:    6.4544    magn:    0.3586    constr:    0.0000

     total cpu time spent up to now is      901.0 secs

     The total energy is the sum of the following terms:

     one-electron contribution =    -689.42733193 Ry
     hartree contribution      =     348.98057140 Ry
     xc contribution           =     -30.79377000 Ry
     ewald contribution        =     268.46058250 Ry

     total energy              =    -102.78112609 Ry
     Harris-Foulkes estimate   =    -102.78112708 Ry
     estimated scf accuracy    <       0.00000135 Ry

     total magnetization       =     1.00 Bohr mag/cell
     absolute magnetization    =     1.21 Bohr mag/cell

     iteration #  2     ecut=   120.00 Ry     beta=0.70
     CG style diagonalization
     ethr =  3.65E-09,  avg # of iterations =  4.5
 
     Magnetic moment per site:
     atom:    1    charge:    0.8355    magn:    0.0456    constr:    0.0000
     atom:    2    charge:    0.8370    magn:    0.0457    constr:    0.0000
     atom:    3    charge:    0.8424    magn:   -0.0094    constr:    0.0000
     atom:    4    charge:    0.8383    magn:    0.0250    constr:    0.0000
     atom:    5    charge:    0.8398    magn:    0.0251    constr:    0.0000
     atom:    6    charge:    0.8424    magn:   -0.0094    constr:    0.0000
     atom:    7    charge:    0.4899    magn:   -0.0019    constr:    0.0000
     atom:    8    charge:    0.4896    magn:   -0.0019    constr:    0.0000
     atom:    9    charge:    0.4908    magn:    0.0001    constr:    0.0000
     atom:   10    charge:    0.4920    magn:   -0.0012    constr:    0.0000
     atom:   11    charge:    0.4918    magn:   -0.0012    constr:    0.0000
     atom:   12    charge:    0.4908    magn:    0.0001    constr:    0.0000
     atom:   13    charge:    6.4537    magn:    0.3592    constr:    0.0000

     total cpu time spent up to now is      911.7 secs

     The total energy is the sum of the following terms:

     one-electron contribution =    -689.44688305 Ry
     hartree contribution      =     348.98325445 Ry
     xc contribution           =     -30.79371641 Ry
     ewald contribution        =     268.46058250 Ry

     total energy              =    -102.78112505 Ry
     Harris-Foulkes estimate   =    -102.78112920 Ry
     estimated scf accuracy    <       0.00001843 Ry

     total magnetization       =     1.00 Bohr mag/cell
     absolute magnetization    =     1.21 Bohr mag/cell

     iteration #  3     ecut=   120.00 Ry     beta=0.70
     CG style diagonalization
     ethr =  3.65E-09,  avg # of iterations =  3.9
 
     Magnetic moment per site:
     atom:    1    charge:    0.8355    magn:    0.0456    constr:    0.0000
     atom:    2    charge:    0.8370    magn:    0.0457    constr:    0.0000
     atom:    3    charge:    0.8423    magn:   -0.0094    constr:    0.0000
     atom:    4    charge:    0.8383    magn:    0.0250    constr:    0.0000
     atom:    5    charge:    0.8398    magn:    0.0251    constr:    0.0000
     atom:    6    charge:    0.8423    magn:   -0.0094    constr:    0.0000
     atom:    7    charge:    0.4899    magn:   -0.0019    constr:    0.0000
     atom:    8    charge:    0.4896    magn:   -0.0019    constr:    0.0000
     atom:    9    charge:    0.4908    magn:    0.0001    constr:    0.0000
     atom:   10    charge:    0.4920    magn:   -0.0012    constr:    0.0000
     atom:   11    charge:    0.4918    magn:   -0.0012    constr:    0.0000
     atom:   12    charge:    0.4908    magn:    0.0001    constr:    0.0000
     atom:   13    charge:    6.4536    magn:    0.3593    constr:    0.0000

     total cpu time spent up to now is      921.1 secs

     End of self-consistent calculation

 ------ SPIN UP ------------


          k = 0.0000 0.0000 0.0000 (****** PWs)   bands (ev):

   -21.2197 -18.6232 -18.4077 -18.2157 -14.7115 -14.7018 -12.6905 -10.9428
   -10.8891 -10.1617  -9.9401  -9.2091  -8.0836  -8.0805  -7.2181  -6.6142
    -6.4463  -6.2414  -5.9732  -1.3638  -1.0128  -0.3121   0.5271   0.5771
     0.5968   0.8821   1.0179   1.1417   1.1475   1.1565   1.1630   1.1751
     1.1999   1.2288   1.2701   1.3296   1.4062   1.4226   1.4293   1.4404

     occupation numbers 
     1.0000   1.0000   1.0000   1.0000   1.0000   1.0000   1.0000   1.0000
     1.0000   1.0000   1.0000   1.0000   1.0000   1.0000   1.0000   1.0000
     1.0000   1.0000   1.0000   0.0000   0.0000   0.0000   0.0000   0.0000
     0.0000   0.0000   0.0000   0.0000   0.0000   0.0000   0.0000   0.0000
     0.0000   0.0000   0.0000   0.0000   0.0000   0.0000   0.0000   0.0000

 ------ SPIN DOWN ----------


          k = 0.0000 0.0000 0.0000 (****** PWs)   bands (ev):

   -21.0627 -18.3302 -18.1702 -18.0260 -14.6207 -14.5762 -12.6557 -10.8766
   -10.8228 -10.0928  -9.9335  -8.8088  -8.0547  -8.0339  -6.5610  -6.4827
    -6.2983  -5.8491  -5.4778  -0.8429  -0.7753  -0.2625   0.5487   0.5964
     0.6110   0.8838   1.0288   1.1440   1.1502   1.1586   1.1655   1.1848
     1.2026   1.2347   1.2777   1.3321   1.4076   1.4235   1.4302   1.4423

     occupation numbers 
     1.0000   1.0000   1.0000   1.0000   1.0000   1.0000   1.0000   1.0000
     1.0000   1.0000   1.0000   1.0000   1.0000   1.0000   1.0000   1.0000
     1.0000   1.0000   0.0000   0.0000   0.0000   0.0000   0.0000   0.0000
     0.0000   0.0000   0.0000   0.0000   0.0000   0.0000   0.0000   0.0000
     0.0000   0.0000   0.0000   0.0000   0.0000   0.0000   0.0000   0.0000

     highest occupied, lowest unoccupied level (ev):    -5.8491   -5.4778

     The total energy is the sum of the following terms:

     one-electron contribution =    -689.43138688 Ry
     hartree contribution      =     348.98336782 Ry
     xc contribution           =     -30.79369036 Ry
     ewald contribution        =     268.46058250 Ry

!    total energy              =    -102.78112692 Ry
     Harris-Foulkes estimate   =    -102.78112693 Ry
     estimated scf accuracy    <       0.00000002 Ry

     The total energy is the sum of the following terms:

     one-electron contribution =    -689.43138688 Ry
     hartree contribution      =     348.98336782 Ry
     xc contribution           =     -30.79369036 Ry
     ewald contribution        =     268.46058250 Ry

     total magnetization       =     1.00 Bohr mag/cell
     absolute magnetization    =     1.21 Bohr mag/cell

     convergence has been achieved in   3 iterations
 
     Using Hirshfeld
        Amplitude [Ry a.u.] :  1.1734E-01
        Acceptor Fragment start :          13
        Acceptor Fragment end   :          13
        Donor Fragment start :           1
        Donor Fragment end   :          12
 
 
     Using Hirshfeld
        Amplitude [Ry a.u.] :  1.1734E-01
        Acceptor Fragment start :          13
        Acceptor Fragment end   :          13
        Donor Fragment start :           1
        Donor Fragment end   :          12
 
     E field correction              : -0.2581591486535205E+01 Ry    
 
     Donor charge                    :      0.6583591530200081 e     
     Acceptor charge                 :     -0.3416164529756740 e     
     Difference of charges           :      0.9999756059956866 e     

     Writing output data file left.save
 
     init_run     :     75.06s CPU     75.06s WALL (       1 calls)
     electrons    :    710.62s CPU    710.62s WALL (      10 calls)
     update_pot   :      8.67s CPU      8.67s WALL (       9 calls)

     Called by init_run:
     wfcinit      :      9.25s CPU      9.25s WALL (       1 calls)
     potinit      :      3.01s CPU      3.01s WALL (       1 calls)

     Called by electrons:
     c_bands      :    524.12s CPU    524.12s WALL (      46 calls)
     sum_band     :     26.43s CPU     26.43s WALL (      46 calls)
     v_of_rho     :     50.62s CPU     50.62s WALL (      55 calls)
     v_h          :      1.22s CPU      1.22s WALL (      55 calls)
     v_xc         :     49.39s CPU     49.39s WALL (      55 calls)
     mix_rho      :      1.94s CPU      1.94s WALL (      46 calls)

     Called by c_bands:
     init_us_2    :      1.84s CPU      1.84s WALL (     186 calls)
     rcgdiagg     :    472.40s CPU    472.40s WALL (      98 calls)
     wfcrot       :     55.15s CPU     55.15s WALL (      78 calls)

     Called by sum_band:

     Called by *cgdiagg:
     h_psi        :    458.94s CPU    458.94s WALL (   17851 calls)
     rdiaghg      :      5.68s CPU      5.68s WALL (      78 calls)
     rdiaghg:chol :      0.44s CPU      0.44s WALL (      78 calls)
     rdiaghg:inve :      0.08s CPU      0.08s WALL (      78 calls)
     rdiaghg:para :      0.42s CPU      0.42s WALL (     156 calls)

     Called by h_psi:
     h_psi:vloc   :    380.97s CPU    380.97s WALL (   17851 calls)
     h_psi:vnl    :     77.37s CPU     77.37s WALL (   17851 calls)
     add_vuspsi   :     48.87s CPU     48.89s WALL (   17851 calls)

     General routines
     calbec       :     37.50s CPU     37.54s WALL (   35624 calls)
     fft          :    114.94s CPU    114.94s WALL (    7361 calls)
     fftw         :    355.24s CPU    355.25s WALL (   40842 calls)
 
     Parallel routines
     fft_scatter  :    204.32s CPU    204.37s WALL (   48203 calls)
 
     PWSCF        : 17m23.33s CPU    17m23.33s WALL

 
   This run was terminated on:  17: 9:54  20Aug2015            

=------------------------------------------------------------------------------=
   JOB DONE.
=------------------------------------------------------------------------------=
2015-08-20 17:10:11.791 (INFO ) [0xfff84b9c410] CET-40440-51771-128:1292235:ibm.runjob.client.Job: exited with status 0
2015-08-20 17:10:11.792 (INFO ) [0xfff84b9c410] tatu.runjob.client: task exited with status 0
2015-08-20 17:10:11.792 (INFO ) [0xfffa65434e0] 10443:tatu.runjob.monitor: monitor terminating
2015-08-20 17:10:11.798 (INFO ) [0xfff84b9c410] tatu.runjob.client: monitor completed
