2015-08-20 14:04:51.068 (INFO ) [0xfffb58bc410] ibm.runjob.AbstractOptions: using properties file /bgsys/local/etc/bg.properties
2015-08-20 14:04:51.075 (INFO ) [0xfffb58bc410] ibm.runjob.AbstractOptions: max open file descriptors: 65536
2015-08-20 14:04:51.075 (INFO ) [0xfffb58bc410] ibm.runjob.AbstractOptions: core file limit: 18446744073709551615
2015-08-20 14:04:51.076 (INFO ) [0xfffb58bc410] 853:tatu.runjob.client: scheduler job id is 565077
2015-08-20 14:04:51.081 (INFO ) [0xfff846034e0] 853:tatu.runjob.monitor: monitor started
2015-08-20 14:04:54.901 (INFO ) [0xfff846034e0] 853:tatu.runjob.monitor: task record 1233343 created
2015-08-20 14:04:54.902 (INFO ) [0xfffb58bc410] CET-20400-31731-128:853:ibm.runjob.client.options.Parser: set local socket to runjob_mux from properties file
2015-08-20 14:04:57.767 (INFO ) [0xfffb58bc410] CET-20400-31731-128:1292135:ibm.runjob.client.Job: job 1292135 started

     Program PWSCF v.5.1.1 starts on 20Aug2015 at 14: 4:57 

     This program is part of the open-source Quantum ESPRESSO suite
     for quantum simulation of materials; please cite
         "P. Giannozzi et al., J. Phys.:Condens. Matter 21 395502 (2009);
          URL http://www.quantum-espresso.org", 
     in publications or presentations arising from this work. More details at
     http://www.quantum-espresso.org/quote

     Parallel version (MPI & OpenMP), running on    1024 processor cores
     Number of MPI processes:              1024
     Threads/MPI process:                     1
     R & G space division:  proc/nbgrp/npool/nimage =    1024
     Waiting for input...
     Reading input from standard input

     Current dimensions of program PWSCF are:
     Max number of different atomic species (ntypx) = 10
     Max number of k-points (npk) =  40000
     Max angular momentum in pseudopotentials (lmaxx) =  3
               file C.pbe-mt_fhi.UPF: wavefunction(s)  4f renormalized
               file H.pbe-mt_fhi.UPF: wavefunction(s)  2p 4f renormalized
               file Cl.pbe-mt_fhi.UPF: wavefunction(s)  4f renormalized

     gamma-point specific algorithms are used
     Message from routine setup:
     the system is metallic, specify occupations

     Subspace diagonalization in iterative solution of the eigenvalue problem:
     scalapack distributed-memory algorithm (size of sub-group: 22* 22 procs)

 
     Parallelization info
     --------------------
     sticks:   dense  smooth     PW     G-vecs:    dense   smooth      PW
     Min          82      82     20                18258    18258    2268
     Max          84      84     22                18316    18316    2314
     Sum       85225   85225  21329             18723953 18723953 2340509
     Tot       42613   42613  10665
 
     Generating pointlists ...
     new r_m :   0.0179 (alat units)  0.8450 (a.u.) for type    1
     new r_m :   0.0179 (alat units)  0.8450 (a.u.) for type    2
     new r_m :   0.0508 (alat units)  2.4011 (a.u.) for type    3
2015-08-20 14:05:03.975 (INFO ) [0xfff846034e0] 853:tatu.runjob.monitor: tracklib completed


     bravais-lattice index     =            1
     lattice parameter (alat)  =      47.2432  a.u.
     unit-cell volume          =  105442.7279 (a.u.)^3
     number of atoms/cell      =           13
     number of atomic types    =            3
     number of electrons       =        37.00 (up:  19.00, down:  18.00)
     number of Kohn-Sham states=           40
     kinetic-energy cutoff     =     120.0000  Ry
     charge density cutoff     =     480.0000  Ry
     convergence threshold     =      1.0E-05
     mixing beta               =       0.7000
     number of iterations used =            8  plain     mixing
     Exchange-correlation      = PBE ( 1  4  3  4 0 0)
     Assuming isolated system, Martyna-Tuckerman method


     celldm(1)=  47.243153  celldm(2)=   0.000000  celldm(3)=   0.000000
     celldm(4)=   0.000000  celldm(5)=   0.000000  celldm(6)=   0.000000

     crystal axes: (cart. coord. in units of alat)
               a(1) = (   1.000000   0.000000   0.000000 )  
               a(2) = (   0.000000   1.000000   0.000000 )  
               a(3) = (   0.000000   0.000000   1.000000 )  

     reciprocal axes: (cart. coord. in units 2 pi/alat)
               b(1) = (  1.000000  0.000000  0.000000 )  
               b(2) = (  0.000000  1.000000  0.000000 )  
               b(3) = (  0.000000  0.000000  1.000000 )  


     PseudoPot. # 1 for  C read from file:
     ./C.pbe-mt_fhi.UPF
     MD5 check sum: 058ca341f9d6d5327d9962fd88a91b65
     Pseudo is Norm-conserving, Zval =  4.0
     Generated using FHI98PP, converted with fhi2upf.x v.5.0.2
     Using radial grid of  461 points,  3 beta functions with: 
                l(1) =   0
                l(2) =   1
                l(3) =   3

     PseudoPot. # 2 for  H read from file:
     ./H.pbe-mt_fhi.UPF
     MD5 check sum: a19bd5488733b3d98581df861506e80d
     Pseudo is Norm-conserving, Zval =  1.0
     Generated using FHI98PP, converted with fhi2upf.x v.5.0.2
     Using radial grid of  387 points,  3 beta functions with: 
                l(1) =   0
                l(2) =   1
                l(3) =   3

     PseudoPot. # 3 for Cl read from file:
     ./Cl.pbe-mt_fhi.UPF
     MD5 check sum: 2690b95bbfe21454a1a3af22474751ef
     Pseudo is Norm-conserving, Zval =  7.0
     Generated using FHI98PP, converted with fhi2upf.x v.5.0.2
     Using radial grid of  503 points,  3 beta functions with: 
                l(1) =   0
                l(2) =   1
                l(3) =   3

     atomic species   valence    mass     pseudopotential
        C              4.00    12.01070      C( 1.00)
        H              1.00     1.00794      H( 1.00)
        Cl             7.00     1.00000     Cl( 1.00)

     Starting magnetic structure 
     atomic species   magnetization
        C            0.000
        H            0.000
        Cl           0.000

     No symmetry found


                                    s                        frac. trans.

      isym =  1     identity                                     

 cryst.   s( 1) = (     1          0          0      )
                  (     0          1          0      )
                  (     0          0          1      )

 cart.    s( 1) = (  1.0000000  0.0000000  0.0000000 )
                  (  0.0000000  1.0000000  0.0000000 )
                  (  0.0000000  0.0000000  1.0000000 )


     point group C_1 (1)    
     there are  1 classes
     the character table:

       E    
A      1.00

     the symmetry operations in each class:
     E        1

   Cartesian axes

     site n.     atom                  positions (alat units)
         1           C   tau(   1) = (   0.0000000   0.0558800   0.0000000  )
         2           C   tau(   2) = (   0.0483920   0.0279400   0.0000000  )
         3           C   tau(   3) = (   0.0483920  -0.0279400   0.0000000  )
         4           C   tau(   4) = (   0.0000000  -0.0558800   0.0000000  )
         5           C   tau(   5) = (  -0.0483920  -0.0279400   0.0000000  )
         6           C   tau(   6) = (  -0.0483920   0.0279400   0.0000000  )
         7           H   tau(   7) = (   0.0000000   0.0992400   0.0000000  )
         8           H   tau(   8) = (   0.0859440   0.0496200   0.0000000  )
         9           H   tau(   9) = (   0.0859440  -0.0496200   0.0000000  )
        10           H   tau(  10) = (   0.0000000  -0.0992400   0.0000000  )
        11           H   tau(  11) = (  -0.0859440  -0.0496200   0.0000000  )
        12           H   tau(  12) = (  -0.0859440   0.0496200   0.0000000  )
        13           Cl  tau(  13) = (   0.0241960   0.0419100   0.1200000  )

   Crystallographic axes

     site n.     atom                  positions (cryst. coord.)
         1           C   tau(   1) = (  0.0000000  0.0558800  0.0000000  )
         2           C   tau(   2) = (  0.0483920  0.0279400  0.0000000  )
         3           C   tau(   3) = (  0.0483920 -0.0279400  0.0000000  )
         4           C   tau(   4) = (  0.0000000 -0.0558800  0.0000000  )
         5           C   tau(   5) = ( -0.0483920 -0.0279400  0.0000000  )
         6           C   tau(   6) = ( -0.0483920  0.0279400  0.0000000  )
         7           H   tau(   7) = (  0.0000000  0.0992400  0.0000000  )
         8           H   tau(   8) = (  0.0859440  0.0496200  0.0000000  )
         9           H   tau(   9) = (  0.0859440 -0.0496200  0.0000000  )
        10           H   tau(  10) = (  0.0000000 -0.0992400  0.0000000  )
        11           H   tau(  11) = ( -0.0859440 -0.0496200  0.0000000  )
        12           H   tau(  12) = ( -0.0859440  0.0496200  0.0000000  )
        13           Cl  tau(  13) = (  0.0241960  0.0419100  0.1200000  )

     number of k points=     2
                       cart. coord. in units 2pi/alat
        k(    1) = (   0.0000000   0.0000000   0.0000000), wk =   1.0000000
        k(    2) = (   0.0000000   0.0000000   0.0000000), wk =   1.0000000

                       cryst. coord.
        k(    1) = (   0.0000000   0.0000000   0.0000000), wk =   1.0000000
        k(    2) = (   0.0000000   0.0000000   0.0000000), wk =   1.0000000

     Dense  grid:  9361977 G-vectors     FFT dimensions: ( 336, 336, 336)

     Largest allocated arrays     est. size (Mb)     dimensions
        Kohn-Sham Wavefunctions         0.70 Mb     (    1155,   40)
        NL pseudopotentials             2.52 Mb     (    1155,  143)
        Each V/rho on FFT grid          3.45 Mb     (  112896,   2)
        Each G-vector array             0.07 Mb     (    9154)
        G-vector shells                 0.03 Mb     (    3928)
     Largest temporary arrays     est. size (Mb)     dimensions
        Each subspace H/S matrix        0.00 Mb     (       1,    1)
        Each <psi_i|beta_j> matrix      0.04 Mb     (     143,   40)
        Arrays for rho mixing          13.78 Mb     (  112896,    8)
 
     Using Hirshfeld
        Amplitude [Ry a.u.] :  1.1732E-01
        Acceptor Fragment start :          13
        Acceptor Fragment end   :          13
        Donor Fragment start :           1
        Donor Fragment end   :          12
 

     Initial potential from superposition of free atoms
     Check: negative starting charge=(component1):   -0.004245
     Check: negative starting charge=(component2):   -0.004245

     starting charge   36.99968, renormalised to   37.00000

     negative rho (up, down):  4.245E-03 4.245E-03
     Starting wfc are  208 randomized atomic wfcs

     total cpu time spent up to now is       84.5 secs

     per-process dynamical memory:    73.7 Mb

     Self-consistent Calculation

     iteration #  1     ecut=   120.00 Ry     beta=0.70
     CG style diagonalization
     ethr =  1.00E-02,  avg # of iterations =  5.9

     negative rho (up, down):  1.126E-03 1.126E-03
 
     Magnetic moment per site:
     atom:    1    charge:    0.8546    magn:    0.0329    constr:    0.0000
     atom:    2    charge:    0.8564    magn:    0.0324    constr:    0.0000
     atom:    3    charge:    0.8873    magn:    0.0005    constr:    0.0000
     atom:    4    charge:    0.8596    magn:    0.0260    constr:    0.0000
     atom:    5    charge:    0.8614    magn:    0.0258    constr:    0.0000
     atom:    6    charge:    0.8876    magn:    0.0004    constr:    0.0000
     atom:    7    charge:    0.4407    magn:    0.0006    constr:    0.0000
     atom:    8    charge:    0.4405    magn:    0.0006    constr:    0.0000
     atom:    9    charge:    0.4414    magn:    0.0000    constr:    0.0000
     atom:   10    charge:    0.4409    magn:    0.0005    constr:    0.0000
     atom:   11    charge:    0.4406    magn:    0.0005    constr:    0.0000
     atom:   12    charge:    0.4415    magn:    0.0000    constr:    0.0000
     atom:   13    charge:    6.6573    magn:    0.0948    constr:    0.0000

     total cpu time spent up to now is      102.0 secs

     The total energy is the sum of the following terms:

     one-electron contribution =    -696.03133631 Ry
     hartree contribution      =     351.25428548 Ry
     xc contribution           =     -30.92908956 Ry
     ewald contribution        =     268.46058250 Ry

     total energy              =    -102.48284462 Ry
     Harris-Foulkes estimate   =    -103.26605592 Ry
     estimated scf accuracy    <       1.31081686 Ry

     total magnetization       =     1.00 Bohr mag/cell
     absolute magnetization    =     1.00 Bohr mag/cell

     iteration #  2     ecut=   120.00 Ry     beta=0.70
     CG style diagonalization
     ethr =  3.54E-03,  avg # of iterations =  6.1

     negative rho (up, down):  5.453E-04 5.535E-04
 
     Magnetic moment per site:
     atom:    1    charge:    0.8511    magn:    0.0259    constr:    0.0000
     atom:    2    charge:    0.8524    magn:    0.0255    constr:    0.0000
     atom:    3    charge:    0.8435    magn:   -0.0014    constr:    0.0000
     atom:    4    charge:    0.8574    magn:    0.0173    constr:    0.0000
     atom:    5    charge:    0.8588    magn:    0.0172    constr:    0.0000
     atom:    6    charge:    0.8433    magn:   -0.0015    constr:    0.0000
     atom:    7    charge:    0.4729    magn:   -0.0002    constr:    0.0000
     atom:    8    charge:    0.4726    magn:   -0.0001    constr:    0.0000
     atom:    9    charge:    0.4741    magn:   -0.0001    constr:    0.0000
     atom:   10    charge:    0.4746    magn:   -0.0002    constr:    0.0000
     atom:   11    charge:    0.4744    magn:   -0.0002    constr:    0.0000
     atom:   12    charge:    0.4741    magn:   -0.0001    constr:    0.0000
     atom:   13    charge:    6.2820    magn:    0.3696    constr:    0.0000

     total cpu time spent up to now is      116.9 secs

     The total energy is the sum of the following terms:

     one-electron contribution =    -687.08420823 Ry
     hartree contribution      =     348.93615536 Ry
     xc contribution           =     -30.65668785 Ry
     ewald contribution        =     268.46058250 Ry

     total energy              =    -102.61769327 Ry
     Harris-Foulkes estimate   =    -102.89818439 Ry
     estimated scf accuracy    <       0.50215725 Ry

     total magnetization       =     1.00 Bohr mag/cell
     absolute magnetization    =     1.11 Bohr mag/cell

     iteration #  3     ecut=   120.00 Ry     beta=0.70
     CG style diagonalization
     ethr =  1.36E-03,  avg # of iterations =  4.4

     negative rho (up, down):  2.897E-04 2.937E-04
 
     Magnetic moment per site:
     atom:    1    charge:    0.8373    magn:    0.0322    constr:    0.0000
     atom:    2    charge:    0.8388    magn:    0.0317    constr:    0.0000
     atom:    3    charge:    0.8369    magn:   -0.0025    constr:    0.0000
     atom:    4    charge:    0.8357    magn:    0.0246    constr:    0.0000
     atom:    5    charge:    0.8372    magn:    0.0244    constr:    0.0000
     atom:    6    charge:    0.8368    magn:   -0.0026    constr:    0.0000
     atom:    7    charge:    0.4853    magn:   -0.0003    constr:    0.0000
     atom:    8    charge:    0.4850    magn:   -0.0003    constr:    0.0000
     atom:    9    charge:    0.4879    magn:   -0.0001    constr:    0.0000
     atom:   10    charge:    0.4870    magn:   -0.0002    constr:    0.0000
     atom:   11    charge:    0.4868    magn:   -0.0002    constr:    0.0000
     atom:   12    charge:    0.4879    magn:   -0.0001    constr:    0.0000
     atom:   13    charge:    6.4489    magn:    0.2949    constr:    0.0000

     total cpu time spent up to now is      127.9 secs

     The total energy is the sum of the following terms:

     one-electron contribution =    -687.76239900 Ry
     hartree contribution      =     348.14041174 Ry
     xc contribution           =     -30.68894954 Ry
     ewald contribution        =     268.46058250 Ry

     total energy              =    -102.73365417 Ry
     Harris-Foulkes estimate   =    -102.86167905 Ry
     estimated scf accuracy    <       0.30806565 Ry

     total magnetization       =     1.00 Bohr mag/cell
     absolute magnetization    =     1.11 Bohr mag/cell

     iteration #  4     ecut=   120.00 Ry     beta=0.70
     CG style diagonalization
     ethr =  8.33E-04,  avg # of iterations =  3.4

     negative rho (up, down):  8.013E-05 8.105E-05
 
     Magnetic moment per site:
     atom:    1    charge:    0.8305    magn:    0.0358    constr:    0.0000
     atom:    2    charge:    0.8318    magn:    0.0354    constr:    0.0000
     atom:    3    charge:    0.8419    magn:   -0.0034    constr:    0.0000
     atom:    4    charge:    0.8381    magn:    0.0238    constr:    0.0000
     atom:    5    charge:    0.8395    magn:    0.0237    constr:    0.0000
     atom:    6    charge:    0.8419    magn:   -0.0035    constr:    0.0000
     atom:    7    charge:    0.4909    magn:   -0.0007    constr:    0.0000
     atom:    8    charge:    0.4906    magn:   -0.0006    constr:    0.0000
     atom:    9    charge:    0.4919    magn:   -0.0002    constr:    0.0000
     atom:   10    charge:    0.4934    magn:   -0.0006    constr:    0.0000
     atom:   11    charge:    0.4931    magn:   -0.0006    constr:    0.0000
     atom:   12    charge:    0.4919    magn:   -0.0002    constr:    0.0000
     atom:   13    charge:    6.4438    magn:    0.3469    constr:    0.0000

     total cpu time spent up to now is      136.8 secs

     The total energy is the sum of the following terms:

     one-electron contribution =    -690.17168615 Ry
     hartree contribution      =     348.82633130 Ry
     xc contribution           =     -30.77089678 Ry
     ewald contribution        =     268.46058250 Ry

     total energy              =    -102.77576398 Ry
     Harris-Foulkes estimate   =    -102.78430658 Ry
     estimated scf accuracy    <       0.01862739 Ry

     total magnetization       =     1.00 Bohr mag/cell
     absolute magnetization    =     1.11 Bohr mag/cell

     iteration #  5     ecut=   120.00 Ry     beta=0.70
     CG style diagonalization
     c_bands:  1 eigenvalues not converged
     c_bands:  3 eigenvalues not converged
     ethr =  5.03E-05,  avg # of iterations =  7.5

     negative rho (up, down):  3.068E-05 3.116E-05
 
     Magnetic moment per site:
     atom:    1    charge:    0.8350    magn:    0.0389    constr:    0.0000
     atom:    2    charge:    0.8365    magn:    0.0386    constr:    0.0000
     atom:    3    charge:    0.8423    magn:   -0.0050    constr:    0.0000
     atom:    4    charge:    0.8364    magn:    0.0247    constr:    0.0000
     atom:    5    charge:    0.8379    magn:    0.0246    constr:    0.0000
     atom:    6    charge:    0.8423    magn:   -0.0051    constr:    0.0000
     atom:    7    charge:    0.4908    magn:   -0.0009    constr:    0.0000
     atom:    8    charge:    0.4905    magn:   -0.0009    constr:    0.0000
     atom:    9    charge:    0.4913    magn:   -0.0002    constr:    0.0000
     atom:   10    charge:    0.4930    magn:   -0.0007    constr:    0.0000
     atom:   11    charge:    0.4927    magn:   -0.0007    constr:    0.0000
     atom:   12    charge:    0.4913    magn:   -0.0002    constr:    0.0000
     atom:   13    charge:    6.4511    magn:    0.3488    constr:    0.0000

     total cpu time spent up to now is      154.6 secs

     The total energy is the sum of the following terms:

     one-electron contribution =    -689.46261532 Ry
     hartree contribution      =     348.95654931 Ry
     xc contribution           =     -30.78696588 Ry
     ewald contribution        =     268.46058250 Ry

     total energy              =    -102.78024409 Ry
     Harris-Foulkes estimate   =    -102.78245198 Ry
     estimated scf accuracy    <       0.00616689 Ry

     total magnetization       =     1.00 Bohr mag/cell
     absolute magnetization    =     1.16 Bohr mag/cell

     iteration #  6     ecut=   120.00 Ry     beta=0.70
     CG style diagonalization
     c_bands:  2 eigenvalues not converged
     ethr =  1.67E-05,  avg # of iterations =  4.7

     negative rho (up, down):  1.141E-05 1.163E-05
 
     Magnetic moment per site:
     atom:    1    charge:    0.8353    magn:    0.0413    constr:    0.0000
     atom:    2    charge:    0.8367    magn:    0.0411    constr:    0.0000
     atom:    3    charge:    0.8420    magn:   -0.0061    constr:    0.0000
     atom:    4    charge:    0.8383    magn:    0.0249    constr:    0.0000
     atom:    5    charge:    0.8397    magn:    0.0248    constr:    0.0000
     atom:    6    charge:    0.8420    magn:   -0.0061    constr:    0.0000
     atom:    7    charge:    0.4900    magn:   -0.0011    constr:    0.0000
     atom:    8    charge:    0.4898    magn:   -0.0011    constr:    0.0000
     atom:    9    charge:    0.4909    magn:   -0.0002    constr:    0.0000
     atom:   10    charge:    0.4924    magn:   -0.0009    constr:    0.0000
     atom:   11    charge:    0.4922    magn:   -0.0009    constr:    0.0000
     atom:   12    charge:    0.4909    magn:   -0.0002    constr:    0.0000
     atom:   13    charge:    6.4564    magn:    0.3498    constr:    0.0000

     total cpu time spent up to now is      166.4 secs

     The total energy is the sum of the following terms:

     one-electron contribution =    -689.45362390 Ry
     hartree contribution      =     348.97211787 Ry
     xc contribution           =     -30.79244478 Ry
     ewald contribution        =     268.46058250 Ry

     total energy              =    -102.78140351 Ry
     Harris-Foulkes estimate   =    -102.78160629 Ry
     estimated scf accuracy    <       0.00067752 Ry

     total magnetization       =     1.00 Bohr mag/cell
     absolute magnetization    =     1.16 Bohr mag/cell

     iteration #  7     ecut=   120.00 Ry     beta=0.70
     CG style diagonalization
     ethr =  1.83E-06,  avg # of iterations =  6.5

     negative rho (up, down):  2.565E-06 2.604E-06
 
     Magnetic moment per site:
     atom:    1    charge:    0.8356    magn:    0.0428    constr:    0.0000
     atom:    2    charge:    0.8371    magn:    0.0427    constr:    0.0000
     atom:    3    charge:    0.8424    magn:   -0.0072    constr:    0.0000
     atom:    4    charge:    0.8384    magn:    0.0248    constr:    0.0000
     atom:    5    charge:    0.8399    magn:    0.0247    constr:    0.0000
     atom:    6    charge:    0.8424    magn:   -0.0072    constr:    0.0000
     atom:    7    charge:    0.4898    magn:   -0.0014    constr:    0.0000
     atom:    8    charge:    0.4895    magn:   -0.0014    constr:    0.0000
     atom:    9    charge:    0.4909    magn:   -0.0001    constr:    0.0000
     atom:   10    charge:    0.4920    magn:   -0.0010    constr:    0.0000
     atom:   11    charge:    0.4917    magn:   -0.0010    constr:    0.0000
     atom:   12    charge:    0.4909    magn:   -0.0001    constr:    0.0000
     atom:   13    charge:    6.4526    magn:    0.3576    constr:    0.0000

     total cpu time spent up to now is      181.9 secs

     The total energy is the sum of the following terms:

     one-electron contribution =    -689.48890717 Ry
     hartree contribution      =     348.99272505 Ry
     xc contribution           =     -30.79315767 Ry
     ewald contribution        =     268.46058250 Ry

     total energy              =    -102.78160042 Ry
     Harris-Foulkes estimate   =    -102.78160547 Ry
     estimated scf accuracy    <       0.00016831 Ry

     total magnetization       =     1.00 Bohr mag/cell
     absolute magnetization    =     1.18 Bohr mag/cell

     iteration #  8     ecut=   120.00 Ry     beta=0.70
     CG style diagonalization
     ethr =  4.55E-07,  avg # of iterations =  5.5

     negative rho (up, down):  1.031E-06 1.032E-06
 
     Magnetic moment per site:
     atom:    1    charge:    0.8355    magn:    0.0444    constr:    0.0000
     atom:    2    charge:    0.8370    magn:    0.0444    constr:    0.0000
     atom:    3    charge:    0.8424    magn:   -0.0082    constr:    0.0000
     atom:    4    charge:    0.8384    magn:    0.0249    constr:    0.0000
     atom:    5    charge:    0.8399    magn:    0.0249    constr:    0.0000
     atom:    6    charge:    0.8424    magn:   -0.0082    constr:    0.0000
     atom:    7    charge:    0.4898    magn:   -0.0016    constr:    0.0000
     atom:    8    charge:    0.4895    magn:   -0.0016    constr:    0.0000
     atom:    9    charge:    0.4907    magn:   -0.0001    constr:    0.0000
     atom:   10    charge:    0.4919    magn:   -0.0011    constr:    0.0000
     atom:   11    charge:    0.4916    magn:   -0.0011    constr:    0.0000
     atom:   12    charge:    0.4907    magn:   -0.0001    constr:    0.0000
     atom:   13    charge:    6.4541    magn:    0.3586    constr:    0.0000

     total cpu time spent up to now is      195.1 secs

     The total energy is the sum of the following terms:

     one-electron contribution =    -689.41121493 Ry
     hartree contribution      =     348.98449943 Ry
     xc contribution           =     -30.79329263 Ry
     ewald contribution        =     268.46058250 Ry

     total energy              =    -102.78165539 Ry
     Harris-Foulkes estimate   =    -102.78165135 Ry
     estimated scf accuracy    <       0.00003899 Ry

     total magnetization       =     1.00 Bohr mag/cell
     absolute magnetization    =     1.19 Bohr mag/cell

     iteration #  9     ecut=   120.00 Ry     beta=0.70
     CG style diagonalization
     ethr =  1.05E-07,  avg # of iterations =  7.2
 
     Magnetic moment per site:
     atom:    1    charge:    0.8356    magn:    0.0449    constr:    0.0000
     atom:    2    charge:    0.8372    magn:    0.0449    constr:    0.0000
     atom:    3    charge:    0.8424    magn:   -0.0088    constr:    0.0000
     atom:    4    charge:    0.8383    magn:    0.0248    constr:    0.0000
     atom:    5    charge:    0.8399    magn:    0.0248    constr:    0.0000
     atom:    6    charge:    0.8423    magn:   -0.0088    constr:    0.0000
     atom:    7    charge:    0.4899    magn:   -0.0018    constr:    0.0000
     atom:    8    charge:    0.4897    magn:   -0.0018    constr:    0.0000
     atom:    9    charge:    0.4908    magn:    0.0000    constr:    0.0000
     atom:   10    charge:    0.4920    magn:   -0.0011    constr:    0.0000
     atom:   11    charge:    0.4918    magn:   -0.0011    constr:    0.0000
     atom:   12    charge:    0.4908    magn:    0.0000    constr:    0.0000
     atom:   13    charge:    6.4505    magn:    0.3618    constr:    0.0000

     total cpu time spent up to now is      211.5 secs

     End of self-consistent calculation

 ------ SPIN UP ------------


          k = 0.0000 0.0000 0.0000 (****** PWs)   bands (ev):

   -21.2200 -18.6209 -18.4041 -18.2173 -14.7116 -14.7035 -12.6918 -10.9446
   -10.8896 -10.1627  -9.9416  -9.2084  -8.0850  -8.0817  -7.2139  -6.6118
    -6.4429  -6.2367  -5.9747  -1.3607  -1.0169  -0.3413   0.0940   0.3053
     0.3077   0.3123   0.3197   0.3550   0.4241   0.4454   0.4500   0.5289
     0.5359   0.5413   0.5490   0.5582   0.5845   0.6083   0.6211   0.6265

     occupation numbers 
     1.0000   1.0000   1.0000   1.0000   1.0000   1.0000   1.0000   1.0000
     1.0000   1.0000   1.0000   1.0000   1.0000   1.0000   1.0000   1.0000
     1.0000   1.0000   1.0000   0.0000   0.0000   0.0000   0.0000   0.0000
     0.0000   0.0000   0.0000   0.0000   0.0000   0.0000   0.0000   0.0000
     0.0000   0.0000   0.0000   0.0000   0.0000   0.0000   0.0000   0.0000

 ------ SPIN DOWN ----------


          k = 0.0000 0.0000 0.0000 (****** PWs)   bands (ev):

   -21.0633 -18.3314 -18.1697 -18.0228 -14.6210 -14.5780 -12.6571 -10.8784
   -10.8232 -10.0944  -9.9345  -8.8095  -8.0557  -8.0352  -6.5605  -6.4789
    -6.2935  -5.8460  -5.4802  -0.8408  -0.7800  -0.2946   0.0950   0.3064
     0.3086   0.3129   0.3198   0.3565   0.4276   0.4547   0.4569   0.5359
     0.5409   0.5425   0.5497   0.5583   0.5854   0.6083   0.6224   0.6274

     occupation numbers 
     1.0000   1.0000   1.0000   1.0000   1.0000   1.0000   1.0000   1.0000
     1.0000   1.0000   1.0000   1.0000   1.0000   1.0000   1.0000   1.0000
     1.0000   1.0000   0.0000   0.0000   0.0000   0.0000   0.0000   0.0000
     0.0000   0.0000   0.0000   0.0000   0.0000   0.0000   0.0000   0.0000
     0.0000   0.0000   0.0000   0.0000   0.0000   0.0000   0.0000   0.0000

     highest occupied, lowest unoccupied level (ev):    -5.8460   -5.4802

     The total energy is the sum of the following terms:

     one-electron contribution =    -689.43976805 Ry
     hartree contribution      =     348.99048411 Ry
     xc contribution           =     -30.79296630 Ry
     ewald contribution        =     268.46058250 Ry

!    total energy              =    -102.78166775 Ry
     Harris-Foulkes estimate   =    -102.78167267 Ry
     estimated scf accuracy    <       0.00000930 Ry

     The total energy is the sum of the following terms:

     one-electron contribution =    -689.43976805 Ry
     hartree contribution      =     348.99048411 Ry
     xc contribution           =     -30.79296630 Ry
     ewald contribution        =     268.46058250 Ry

     total magnetization       =     1.00 Bohr mag/cell
     absolute magnetization    =     1.20 Bohr mag/cell

     convergence has been achieved in   9 iterations
 
     Using Hirshfeld
        Amplitude [Ry a.u.] :  1.1732E-01
        Acceptor Fragment start :          13
        Acceptor Fragment end   :          13
        Donor Fragment start :           1
        Donor Fragment end   :          12
 
 
     Using Hirshfeld
        Amplitude [Ry a.u.] :  1.1732E-01
        Acceptor Fragment start :          13
        Acceptor Fragment end   :          13
        Donor Fragment start :           1
        Donor Fragment end   :          12
 
     E field correction              : -0.2581801351387778E+01 Ry    
 
     Donor charge                    :      0.6551183605266324 e     
     Acceptor charge                 :     -0.3383921117902799 e     
     Difference of charges           :      0.9935104723169168 e     
 
     epcdft_thr                      :  0.1000000000000000E-02 e     
     Surplus(+)/deficit(-) charge    : -0.6489527683083196E-02 e     
 
     -----------------------------------------------
 
                      SCF converged but...
 
     electron localization condition NOT satisfied
     restarting scf with different applied potential
 
     New field Amp                   :  0.1183200000000000E+00 Ry    
     charge density from previous step
 
     Using Hirshfeld
        Amplitude [Ry a.u.] :  1.1832E-01
        Acceptor Fragment start :          13
        Acceptor Fragment end   :          13
        Donor Fragment start :           1
        Donor Fragment end   :          12
 

     total cpu time spent up to now is      237.5 secs

     per-process dynamical memory:    81.9 Mb

     Self-consistent Calculation

     iteration #  1     ecut=   120.00 Ry     beta=0.70
     CG style diagonalization
     c_bands:  1 eigenvalues not converged
     c_bands:  3 eigenvalues not converged
     ethr =  1.05E-07,  avg # of iterations =  8.1
 
     Magnetic moment per site:
     atom:    1    charge:    0.8345    magn:    0.0460    constr:    0.0000
     atom:    2    charge:    0.8360    magn:    0.0460    constr:    0.0000
     atom:    3    charge:    0.8424    magn:   -0.0090    constr:    0.0000
     atom:    4    charge:    0.8375    magn:    0.0257    constr:    0.0000
     atom:    5    charge:    0.8389    magn:    0.0257    constr:    0.0000
     atom:    6    charge:    0.8424    magn:   -0.0090    constr:    0.0000
     atom:    7    charge:    0.4899    magn:   -0.0018    constr:    0.0000
     atom:    8    charge:    0.4897    magn:   -0.0018    constr:    0.0000
     atom:    9    charge:    0.4908    magn:    0.0001    constr:    0.0000
     atom:   10    charge:    0.4920    magn:   -0.0011    constr:    0.0000
     atom:   11    charge:    0.4918    magn:   -0.0011    constr:    0.0000
     atom:   12    charge:    0.4908    magn:    0.0001    constr:    0.0000
     atom:   13    charge:    6.4706    magn:    0.3448    constr:    0.0000

     total cpu time spent up to now is      258.1 secs

     The total energy is the sum of the following terms:

     one-electron contribution =    -689.31768690 Ry
     hartree contribution      =     348.92257097 Ry
     xc contribution           =     -30.79493501 Ry
     ewald contribution        =     268.46058250 Ry

     total energy              =    -102.75931839 Ry
     Harris-Foulkes estimate   =    -102.75974898 Ry
     estimated scf accuracy    <       0.00059262 Ry

     total magnetization       =     1.00 Bohr mag/cell
     absolute magnetization    =     1.21 Bohr mag/cell

     iteration #  2     ecut=   120.00 Ry     beta=0.70
     CG style diagonalization
     ethr =  1.60E-06,  avg # of iterations =  4.3
 
     Magnetic moment per site:
     atom:    1    charge:    0.8355    magn:    0.0454    constr:    0.0000
     atom:    2    charge:    0.8369    magn:    0.0454    constr:    0.0000
     atom:    3    charge:    0.8424    magn:   -0.0090    constr:    0.0000
     atom:    4    charge:    0.8384    magn:    0.0251    constr:    0.0000
     atom:    5    charge:    0.8399    magn:    0.0251    constr:    0.0000
     atom:    6    charge:    0.8424    magn:   -0.0090    constr:    0.0000
     atom:    7    charge:    0.4898    magn:   -0.0018    constr:    0.0000
     atom:    8    charge:    0.4896    magn:   -0.0018    constr:    0.0000
     atom:    9    charge:    0.4907    magn:    0.0001    constr:    0.0000
     atom:   10    charge:    0.4920    magn:   -0.0011    constr:    0.0000
     atom:   11    charge:    0.4917    magn:   -0.0012    constr:    0.0000
     atom:   12    charge:    0.4907    magn:    0.0001    constr:    0.0000
     atom:   13    charge:    6.4551    magn:    0.3574    constr:    0.0000

     total cpu time spent up to now is      268.3 secs

     The total energy is the sum of the following terms:

     one-electron contribution =    -689.74597313 Ry
     hartree contribution      =     348.98087382 Ry
     xc contribution           =     -30.79396510 Ry
     ewald contribution        =     268.46058250 Ry

     total energy              =    -102.75882604 Ry
     Harris-Foulkes estimate   =    -102.76064821 Ry
     estimated scf accuracy    <       0.00808901 Ry

     total magnetization       =     1.00 Bohr mag/cell
     absolute magnetization    =     1.21 Bohr mag/cell

     iteration #  3     ecut=   120.00 Ry     beta=0.70
     CG style diagonalization
     ethr =  1.60E-06,  avg # of iterations =  3.7
 
     Magnetic moment per site:
     atom:    1    charge:    0.8358    magn:    0.0457    constr:    0.0000
     atom:    2    charge:    0.8373    magn:    0.0457    constr:    0.0000
     atom:    3    charge:    0.8423    magn:   -0.0093    constr:    0.0000
     atom:    4    charge:    0.8382    magn:    0.0252    constr:    0.0000
     atom:    5    charge:    0.8398    magn:    0.0252    constr:    0.0000
     atom:    6    charge:    0.8422    magn:   -0.0093    constr:    0.0000
     atom:    7    charge:    0.4898    magn:   -0.0018    constr:    0.0000
     atom:    8    charge:    0.4895    magn:   -0.0018    constr:    0.0000
     atom:    9    charge:    0.4907    magn:    0.0001    constr:    0.0000
     atom:   10    charge:    0.4919    magn:   -0.0011    constr:    0.0000
     atom:   11    charge:    0.4916    magn:   -0.0011    constr:    0.0000
     atom:   12    charge:    0.4907    magn:    0.0001    constr:    0.0000
     atom:   13    charge:    6.4555    magn:    0.3564    constr:    0.0000

     total cpu time spent up to now is      277.3 secs

     End of self-consistent calculation

 ------ SPIN UP ------------


          k = 0.0000 0.0000 0.0000 (****** PWs)   bands (ev):

   -21.2115 -18.6166 -18.4027 -18.2075 -14.7031 -14.6938 -12.6821 -10.9346
   -10.8809 -10.1531  -9.9316  -9.2015  -8.0752  -8.0721  -7.2120  -6.6120
    -6.4459  -6.2346  -5.9670  -1.3552  -1.0053  -0.3484   0.0986   0.3094
     0.3118   0.3178   0.3247   0.3598   0.4292   0.4446   0.4491   0.5358
     0.5413   0.5469   0.5541   0.5633   0.5919   0.6134   0.6254   0.6304

     occupation numbers 
     1.0000   1.0000   1.0000   1.0000   1.0000   1.0000   1.0000   1.0000
     1.0000   1.0000   1.0000   1.0000   1.0000   1.0000   1.0000   1.0000
     1.0000   1.0000   1.0000   0.0000   0.0000   0.0000   0.0000   0.0000
     0.0000   0.0000   0.0000   0.0000   0.0000   0.0000   0.0000   0.0000
     0.0000   0.0000   0.0000   0.0000   0.0000   0.0000   0.0000   0.0000

 ------ SPIN DOWN ----------


          k = 0.0000 0.0000 0.0000 (****** PWs)   bands (ev):

   -21.0539 -18.3228 -18.1613 -18.0244 -14.6121 -14.5678 -12.6471 -10.8681
   -10.8144 -10.0842  -9.9248  -8.8002  -8.0461  -8.0253  -6.5575  -6.4808
    -6.2979  -5.8416  -5.4735  -0.8333  -0.7668  -0.3017   0.0995   0.3107
     0.3128   0.3183   0.3247   0.3612   0.4325   0.4541   0.4562   0.5414
     0.5469   0.5490   0.5550   0.5634   0.5928   0.6134   0.6266   0.6313

     occupation numbers 
     1.0000   1.0000   1.0000   1.0000   1.0000   1.0000   1.0000   1.0000
     1.0000   1.0000   1.0000   1.0000   1.0000   1.0000   1.0000   1.0000
     1.0000   1.0000   0.0000   0.0000   0.0000   0.0000   0.0000   0.0000
     0.0000   0.0000   0.0000   0.0000   0.0000   0.0000   0.0000   0.0000
     0.0000   0.0000   0.0000   0.0000   0.0000   0.0000   0.0000   0.0000

     highest occupied, lowest unoccupied level (ev):    -5.8416   -5.4735

     The total energy is the sum of the following terms:

     one-electron contribution =    -689.40441242 Ry
     hartree contribution      =     348.97781494 Ry
     xc contribution           =     -30.79365903 Ry
     ewald contribution        =     268.46058250 Ry

!    total energy              =    -102.75967402 Ry
     Harris-Foulkes estimate   =    -102.75967708 Ry
     estimated scf accuracy    <       0.00000404 Ry

     The total energy is the sum of the following terms:

     one-electron contribution =    -689.40441242 Ry
     hartree contribution      =     348.97781494 Ry
     xc contribution           =     -30.79365903 Ry
     ewald contribution        =     268.46058250 Ry

     total magnetization       =     1.00 Bohr mag/cell
     absolute magnetization    =     1.21 Bohr mag/cell

     convergence has been achieved in   3 iterations
 
     Using Hirshfeld
        Amplitude [Ry a.u.] :  1.1832E-01
        Acceptor Fragment start :          13
        Acceptor Fragment end   :          13
        Donor Fragment start :           1
        Donor Fragment end   :          12
 
 
     Using Hirshfeld
        Amplitude [Ry a.u.] :  1.1832E-01
        Acceptor Fragment start :          13
        Acceptor Fragment end   :          13
        Donor Fragment start :           1
        Donor Fragment end   :          12
 
     E field correction              : -0.2602293610825417E+01 Ry    
 
     Donor charge                    :      0.6616227579363070 e     
     Acceptor charge                 :     -0.3446854670009447 e     
     Difference of charges           :      1.0063082249372393 e     
 
     epcdft_thr                      :  0.1000000000000000E-02 e     
     Surplus(+)/deficit(-) charge    :  0.6308224937239260E-02 e     
 
     -----------------------------------------------
 
                      SCF converged but...
 
     electron localization condition NOT satisfied
     restarting scf with different applied potential
 
     New field Amp                   :  0.1178270833821852E+00 Ry    
     charge density from previous step
 
     Using Hirshfeld
        Amplitude [Ry a.u.] :  1.1783E-01
        Acceptor Fragment start :          13
        Acceptor Fragment end   :          13
        Donor Fragment start :           1
        Donor Fragment end   :          12
 

     total cpu time spent up to now is      302.6 secs

     per-process dynamical memory:    81.9 Mb

     Self-consistent Calculation

     iteration #  1     ecut=   120.00 Ry     beta=0.70
     CG style diagonalization
     ethr =  1.60E-06,  avg # of iterations =  2.4

     Threshold (ethr) on eigenvalues was too large:
     Diagonalizing with lowered threshold

     CG style diagonalization
     c_bands:  2 eigenvalues not converged
     ethr =  1.47E-07,  avg # of iterations =  4.3
 
     Magnetic moment per site:
     atom:    1    charge:    0.8353    magn:    0.0455    constr:    0.0000
     atom:    2    charge:    0.8367    magn:    0.0456    constr:    0.0000
     atom:    3    charge:    0.8424    magn:   -0.0093    constr:    0.0000
     atom:    4    charge:    0.8389    magn:    0.0250    constr:    0.0000
     atom:    5    charge:    0.8403    magn:    0.0250    constr:    0.0000
     atom:    6    charge:    0.8425    magn:   -0.0093    constr:    0.0000
     atom:    7    charge:    0.4899    magn:   -0.0019    constr:    0.0000
     atom:    8    charge:    0.4896    magn:   -0.0019    constr:    0.0000
     atom:    9    charge:    0.4908    magn:    0.0001    constr:    0.0000
     atom:   10    charge:    0.4920    magn:   -0.0012    constr:    0.0000
     atom:   11    charge:    0.4917    magn:   -0.0012    constr:    0.0000
     atom:   12    charge:    0.4908    magn:    0.0001    constr:    0.0000
     atom:   13    charge:    6.4511    magn:    0.3603    constr:    0.0000

     total cpu time spent up to now is      320.9 secs

     The total energy is the sum of the following terms:

     one-electron contribution =    -689.42804906 Ry
     hartree contribution      =     348.98625781 Ry
     xc contribution           =     -30.79313124 Ry
     ewald contribution        =     268.46058250 Ry

     total energy              =    -102.77048465 Ry
     Harris-Foulkes estimate   =    -102.77053128 Ry
     estimated scf accuracy    <       0.00006022 Ry

     total magnetization       =     1.00 Bohr mag/cell
     absolute magnetization    =     1.21 Bohr mag/cell

     iteration #  2     ecut=   120.00 Ry     beta=0.70
     CG style diagonalization
     ethr =  1.63E-07,  avg # of iterations =  4.5
 
     Magnetic moment per site:
     atom:    1    charge:    0.8353    magn:    0.0457    constr:    0.0000
     atom:    2    charge:    0.8368    magn:    0.0457    constr:    0.0000
     atom:    3    charge:    0.8424    magn:   -0.0094    constr:    0.0000
     atom:    4    charge:    0.8383    magn:    0.0252    constr:    0.0000
     atom:    5    charge:    0.8398    magn:    0.0252    constr:    0.0000
     atom:    6    charge:    0.8425    magn:   -0.0094    constr:    0.0000
     atom:    7    charge:    0.4899    magn:   -0.0019    constr:    0.0000
     atom:    8    charge:    0.4896    magn:   -0.0019    constr:    0.0000
     atom:    9    charge:    0.4908    magn:    0.0001    constr:    0.0000
     atom:   10    charge:    0.4920    magn:   -0.0012    constr:    0.0000
     atom:   11    charge:    0.4917    magn:   -0.0012    constr:    0.0000
     atom:   12    charge:    0.4908    magn:    0.0001    constr:    0.0000
     atom:   13    charge:    6.4551    magn:    0.3572    constr:    0.0000

     total cpu time spent up to now is      331.5 secs

     The total energy is the sum of the following terms:

     one-electron contribution =    -689.35503051 Ry
     hartree contribution      =     348.97428642 Ry
     xc contribution           =     -30.79350136 Ry
     ewald contribution        =     268.46058250 Ry

     total energy              =    -102.77045710 Ry
     Harris-Foulkes estimate   =    -102.77059010 Ry
     estimated scf accuracy    <       0.00048517 Ry

     total magnetization       =     1.00 Bohr mag/cell
     absolute magnetization    =     1.21 Bohr mag/cell

     iteration #  3     ecut=   120.00 Ry     beta=0.70
     CG style diagonalization
     ethr =  1.63E-07,  avg # of iterations =  3.9
 
     Magnetic moment per site:
     atom:    1    charge:    0.8355    magn:    0.0457    constr:    0.0000
     atom:    2    charge:    0.8370    magn:    0.0457    constr:    0.0000
     atom:    3    charge:    0.8424    magn:   -0.0094    constr:    0.0000
     atom:    4    charge:    0.8383    magn:    0.0251    constr:    0.0000
     atom:    5    charge:    0.8397    magn:    0.0251    constr:    0.0000
     atom:    6    charge:    0.8424    magn:   -0.0094    constr:    0.0000
     atom:    7    charge:    0.4899    magn:   -0.0019    constr:    0.0000
     atom:    8    charge:    0.4896    magn:   -0.0019    constr:    0.0000
     atom:    9    charge:    0.4908    magn:    0.0001    constr:    0.0000
     atom:   10    charge:    0.4920    magn:   -0.0012    constr:    0.0000
     atom:   11    charge:    0.4917    magn:   -0.0012    constr:    0.0000
     atom:   12    charge:    0.4908    magn:    0.0001    constr:    0.0000
     atom:   13    charge:    6.4544    magn:    0.3578    constr:    0.0000

     total cpu time spent up to now is      340.8 secs

     The total energy is the sum of the following terms:

     one-electron contribution =    -689.43602009 Ry
     hartree contribution      =     348.97849871 Ry
     xc contribution           =     -30.79356759 Ry
     ewald contribution        =     268.46058250 Ry

     total energy              =    -102.77051811 Ry
     Harris-Foulkes estimate   =    -102.77052431 Ry
     estimated scf accuracy    <       0.00002317 Ry

     total magnetization       =     1.00 Bohr mag/cell
     absolute magnetization    =     1.21 Bohr mag/cell

     iteration #  4     ecut=   120.00 Ry     beta=0.70
     CG style diagonalization
     ethr =  6.26E-08,  avg # of iterations =  3.3
 
     Magnetic moment per site:
     atom:    1    charge:    0.8356    magn:    0.0457    constr:    0.0000
     atom:    2    charge:    0.8371    magn:    0.0457    constr:    0.0000
     atom:    3    charge:    0.8423    magn:   -0.0094    constr:    0.0000
     atom:    4    charge:    0.8383    magn:    0.0251    constr:    0.0000
     atom:    5    charge:    0.8398    magn:    0.0251    constr:    0.0000
     atom:    6    charge:    0.8423    magn:   -0.0094    constr:    0.0000
     atom:    7    charge:    0.4899    magn:   -0.0019    constr:    0.0000
     atom:    8    charge:    0.4896    magn:   -0.0019    constr:    0.0000
     atom:    9    charge:    0.4908    magn:    0.0001    constr:    0.0000
     atom:   10    charge:    0.4920    magn:   -0.0012    constr:    0.0000
     atom:   11    charge:    0.4918    magn:   -0.0012    constr:    0.0000
     atom:   12    charge:    0.4908    magn:    0.0001    constr:    0.0000
     atom:   13    charge:    6.4540    magn:    0.3584    constr:    0.0000

     total cpu time spent up to now is      348.8 secs

     End of self-consistent calculation

 ------ SPIN UP ------------


          k = 0.0000 0.0000 0.0000 (****** PWs)   bands (ev):

   -21.2181 -18.6215 -18.4054 -18.2129 -14.7095 -14.6997 -12.6880 -10.9402
   -10.8874 -10.1600  -9.9368  -9.2071  -8.0813  -8.0781  -7.2158  -6.6123
    -6.4446  -6.2395  -5.9707  -1.3626  -1.0101  -0.3453   0.0985   0.3094
     0.3118   0.3177   0.3246   0.3593   0.4284   0.4456   0.4502   0.5329
     0.5412   0.5468   0.5540   0.5632   0.5916   0.6133   0.6251   0.6302

     occupation numbers 
     1.0000   1.0000   1.0000   1.0000   1.0000   1.0000   1.0000   1.0000
     1.0000   1.0000   1.0000   1.0000   1.0000   1.0000   1.0000   1.0000
     1.0000   1.0000   1.0000   0.0000   0.0000   0.0000   0.0000   0.0000
     0.0000   0.0000   0.0000   0.0000   0.0000   0.0000   0.0000   0.0000
     0.0000   0.0000   0.0000   0.0000   0.0000   0.0000   0.0000   0.0000

 ------ SPIN DOWN ----------


          k = 0.0000 0.0000 0.0000 (****** PWs)   bands (ev):

   -21.0607 -18.3288 -18.1673 -18.0247 -14.6183 -14.5738 -12.6532 -10.8738
   -10.8209 -10.0910  -9.9303  -8.8061  -8.0523  -8.0313  -6.5598  -6.4811
    -6.2973  -5.8463  -5.4761  -0.8396  -0.7726  -0.2988   0.0994   0.3107
     0.3128   0.3182   0.3247   0.3608   0.4319   0.4550   0.4571   0.5412
     0.5457   0.5473   0.5546   0.5633   0.5925   0.6133   0.6263   0.6311

     occupation numbers 
     1.0000   1.0000   1.0000   1.0000   1.0000   1.0000   1.0000   1.0000
     1.0000   1.0000   1.0000   1.0000   1.0000   1.0000   1.0000   1.0000
     1.0000   1.0000   0.0000   0.0000   0.0000   0.0000   0.0000   0.0000
     0.0000   0.0000   0.0000   0.0000   0.0000   0.0000   0.0000   0.0000
     0.0000   0.0000   0.0000   0.0000   0.0000   0.0000   0.0000   0.0000

     highest occupied, lowest unoccupied level (ev):    -5.8463   -5.4761

     The total energy is the sum of the following terms:

     one-electron contribution =    -689.42006045 Ry
     hartree contribution      =     348.98269552 Ry
     xc contribution           =     -30.79373789 Ry
     ewald contribution        =     268.46058250 Ry

!    total energy              =    -102.77052032 Ry
     Harris-Foulkes estimate   =    -102.77052082 Ry
     estimated scf accuracy    <       0.00000077 Ry

     The total energy is the sum of the following terms:

     one-electron contribution =    -689.42006045 Ry
     hartree contribution      =     348.98269552 Ry
     xc contribution           =     -30.79373789 Ry
     ewald contribution        =     268.46058250 Ry

     total magnetization       =     1.00 Bohr mag/cell
     absolute magnetization    =     1.21 Bohr mag/cell

     convergence has been achieved in   4 iterations
 
     Using Hirshfeld
        Amplitude [Ry a.u.] :  1.1783E-01
        Acceptor Fragment start :          13
        Acceptor Fragment end   :          13
        Donor Fragment start :           1
        Donor Fragment end   :          12
 
 
     Using Hirshfeld
        Amplitude [Ry a.u.] :  1.1783E-01
        Acceptor Fragment start :          13
        Acceptor Fragment end   :          13
        Donor Fragment start :           1
        Donor Fragment end   :          12
 
     E field correction              : -0.2591998123675858E+01 Ry    
 
     Donor charge                    :      0.6592411811433045 e     
     Acceptor charge                 :     -0.3424367924306804 e     
     Difference of charges           :      1.0016779735739902 e     
 
     epcdft_thr                      :  0.1000000000000000E-02 e     
     Surplus(+)/deficit(-) charge    :  0.1677973573990243E-02 e     
 
     -----------------------------------------------
 
                      SCF converged but...
 
     electron localization condition NOT satisfied
     restarting scf with different applied potential
 
     New field Amp                   :  0.1176484535424667E+00 Ry    
     charge density from previous step
 
     Using Hirshfeld
        Amplitude [Ry a.u.] :  1.1765E-01
        Acceptor Fragment start :          13
        Acceptor Fragment end   :          13
        Donor Fragment start :           1
        Donor Fragment end   :          12
 

     total cpu time spent up to now is      374.2 secs

     per-process dynamical memory:    81.9 Mb

     Self-consistent Calculation

     iteration #  1     ecut=   120.00 Ry     beta=0.70
     CG style diagonalization
     ethr =  6.26E-08,  avg # of iterations =  2.3
 
     Magnetic moment per site:
     atom:    1    charge:    0.8354    magn:    0.0457    constr:    0.0000
     atom:    2    charge:    0.8368    magn:    0.0458    constr:    0.0000
     atom:    3    charge:    0.8424    magn:   -0.0094    constr:    0.0000
     atom:    4    charge:    0.8382    magn:    0.0251    constr:    0.0000
     atom:    5    charge:    0.8396    magn:    0.0252    constr:    0.0000
     atom:    6    charge:    0.8424    magn:   -0.0094    constr:    0.0000
     atom:    7    charge:    0.4899    magn:   -0.0019    constr:    0.0000
     atom:    8    charge:    0.4896    magn:   -0.0019    constr:    0.0000
     atom:    9    charge:    0.4908    magn:    0.0001    constr:    0.0000
     atom:   10    charge:    0.4920    magn:   -0.0012    constr:    0.0000
     atom:   11    charge:    0.4918    magn:   -0.0012    constr:    0.0000
     atom:   12    charge:    0.4908    magn:    0.0001    constr:    0.0000
     atom:   13    charge:    6.4557    magn:    0.3571    constr:    0.0000

     total cpu time spent up to now is      382.4 secs

     End of self-consistent calculation

 ------ SPIN UP ------------


          k = 0.0000 0.0000 0.0000 (****** PWs)   bands (ev):

   -21.2165 -18.6207 -18.4064 -18.2137 -14.7085 -14.6988 -12.6875 -10.9398
   -10.8860 -10.1577  -9.9382  -9.2063  -8.0805  -8.0777  -7.2164  -6.6144
    -6.4473  -6.2387  -5.9719  -1.3603  -1.0107  -0.3447   0.0985   0.3095
     0.3119   0.3177   0.3246   0.3592   0.4283   0.4460   0.4506   0.5323
     0.5412   0.5468   0.5540   0.5632   0.5916   0.6133   0.6250   0.6301

     occupation numbers 
     1.0000   1.0000   1.0000   1.0000   1.0000   1.0000   1.0000   1.0000
     1.0000   1.0000   1.0000   1.0000   1.0000   1.0000   1.0000   1.0000
     1.0000   1.0000   1.0000   0.0000   0.0000   0.0000   0.0000   0.0000
     0.0000   0.0000   0.0000   0.0000   0.0000   0.0000   0.0000   0.0000
     0.0000   0.0000   0.0000   0.0000   0.0000   0.0000   0.0000   0.0000

 ------ SPIN DOWN ----------


          k = 0.0000 0.0000 0.0000 (****** PWs)   bands (ev):

   -21.0593 -18.3265 -18.1682 -18.0267 -14.6176 -14.5731 -12.6527 -10.8735
   -10.8196 -10.0887  -9.9317  -8.8056  -8.0516  -8.0310  -6.5599  -6.4832
    -6.2994  -5.8478  -5.4756  -0.8405  -0.7710  -0.2980   0.0994   0.3107
     0.3128   0.3182   0.3247   0.3607   0.4318   0.4554   0.4575   0.5412
     0.5453   0.5471   0.5546   0.5632   0.5925   0.6133   0.6263   0.6310

     occupation numbers 
     1.0000   1.0000   1.0000   1.0000   1.0000   1.0000   1.0000   1.0000
     1.0000   1.0000   1.0000   1.0000   1.0000   1.0000   1.0000   1.0000
     1.0000   1.0000   0.0000   0.0000   0.0000   0.0000   0.0000   0.0000
     0.0000   0.0000   0.0000   0.0000   0.0000   0.0000   0.0000   0.0000
     0.0000   0.0000   0.0000   0.0000   0.0000   0.0000   0.0000   0.0000

     highest occupied, lowest unoccupied level (ev):    -5.8478   -5.4756

     The total energy is the sum of the following terms:

     one-electron contribution =    -689.41485607 Ry
     hartree contribution      =     348.97351723 Ry
     xc contribution           =     -30.79369121 Ry
     ewald contribution        =     268.46058250 Ry

!    total energy              =    -102.77444755 Ry
     Harris-Foulkes estimate   =    -102.77445064 Ry
     estimated scf accuracy    <       0.00000371 Ry

     The total energy is the sum of the following terms:

     one-electron contribution =    -689.41485607 Ry
     hartree contribution      =     348.97351723 Ry
     xc contribution           =     -30.79369121 Ry
     ewald contribution        =     268.46058250 Ry

     total magnetization       =     1.00 Bohr mag/cell
     absolute magnetization    =     1.21 Bohr mag/cell

     convergence has been achieved in   1 iterations
 
     Using Hirshfeld
        Amplitude [Ry a.u.] :  1.1765E-01
        Acceptor Fragment start :          13
        Acceptor Fragment end   :          13
        Donor Fragment start :           1
        Donor Fragment end   :          12
 
 
     Using Hirshfeld
        Amplitude [Ry a.u.] :  1.1765E-01
        Acceptor Fragment start :          13
        Acceptor Fragment end   :          13
        Donor Fragment start :           1
        Donor Fragment end   :          12
 
     E field correction              : -0.2587681317857118E+01 Ry    
 
     Donor charge                    :      0.6608744563499833 e     
     Acceptor charge                 :     -0.3440950953911948 e     
     Difference of charges           :      1.0049695517411976 e     
 
     epcdft_thr                      :  0.1000000000000000E-02 e     
     Surplus(+)/deficit(-) charge    :  0.4969551741197620E-02 e     
 
     -----------------------------------------------
 
                      SCF converged but...
 
     electron localization condition NOT satisfied
     restarting scf with different applied potential
 
     New field Amp                   :  0.1179181449141762E+00 Ry    
     charge density from previous step
 
     Using Hirshfeld
        Amplitude [Ry a.u.] :  1.1792E-01
        Acceptor Fragment start :          13
        Acceptor Fragment end   :          13
        Donor Fragment start :           1
        Donor Fragment end   :          12
 

     total cpu time spent up to now is      407.8 secs

     per-process dynamical memory:    81.9 Mb

     Self-consistent Calculation

     iteration #  1     ecut=   120.00 Ry     beta=0.70
     CG style diagonalization
     ethr =  6.26E-08,  avg # of iterations =  3.1
 
     Magnetic moment per site:
     atom:    1    charge:    0.8358    magn:    0.0455    constr:    0.0000
     atom:    2    charge:    0.8373    magn:    0.0456    constr:    0.0000
     atom:    3    charge:    0.8422    magn:   -0.0094    constr:    0.0000
     atom:    4    charge:    0.8386    magn:    0.0249    constr:    0.0000
     atom:    5    charge:    0.8401    magn:    0.0249    constr:    0.0000
     atom:    6    charge:    0.8422    magn:   -0.0094    constr:    0.0000
     atom:    7    charge:    0.4899    magn:   -0.0019    constr:    0.0000
     atom:    8    charge:    0.4896    magn:   -0.0019    constr:    0.0000
     atom:    9    charge:    0.4908    magn:    0.0001    constr:    0.0000
     atom:   10    charge:    0.4920    magn:   -0.0012    constr:    0.0000
     atom:   11    charge:    0.4917    magn:   -0.0012    constr:    0.0000
     atom:   12    charge:    0.4908    magn:    0.0001    constr:    0.0000
     atom:   13    charge:    6.4500    magn:    0.3616    constr:    0.0000

     total cpu time spent up to now is      416.9 secs

     The total energy is the sum of the following terms:

     one-electron contribution =    -689.44461363 Ry
     hartree contribution      =     348.99836268 Ry
     xc contribution           =     -30.79353718 Ry
     ewald contribution        =     268.46058250 Ry

     total energy              =    -102.76848152 Ry
     Harris-Foulkes estimate   =    -102.76852509 Ry
     estimated scf accuracy    <       0.00005824 Ry

     total magnetization       =     1.00 Bohr mag/cell
     absolute magnetization    =     1.21 Bohr mag/cell

     iteration #  2     ecut=   120.00 Ry     beta=0.70
     CG style diagonalization
     ethr =  1.57E-07,  avg # of iterations =  3.9
 
     Magnetic moment per site:
     atom:    1    charge:    0.8355    magn:    0.0457    constr:    0.0000
     atom:    2    charge:    0.8370    magn:    0.0458    constr:    0.0000
     atom:    3    charge:    0.8423    magn:   -0.0094    constr:    0.0000
     atom:    4    charge:    0.8383    magn:    0.0251    constr:    0.0000
     atom:    5    charge:    0.8398    magn:    0.0251    constr:    0.0000
     atom:    6    charge:    0.8423    magn:   -0.0094    constr:    0.0000
     atom:    7    charge:    0.4899    magn:   -0.0019    constr:    0.0000
     atom:    8    charge:    0.4896    magn:   -0.0019    constr:    0.0000
     atom:    9    charge:    0.4908    magn:    0.0001    constr:    0.0000
     atom:   10    charge:    0.4920    magn:   -0.0012    constr:    0.0000
     atom:   11    charge:    0.4917    magn:   -0.0012    constr:    0.0000
     atom:   12    charge:    0.4908    magn:    0.0001    constr:    0.0000
     atom:   13    charge:    6.4547    magn:    0.3578    constr:    0.0000

     total cpu time spent up to now is      426.2 secs

     The total energy is the sum of the following terms:

     one-electron contribution =    -689.31116525 Ry
     hartree contribution      =     348.97989511 Ry
     xc contribution           =     -30.79377981 Ry
     ewald contribution        =     268.46058250 Ry

     total energy              =    -102.76843971 Ry
     Harris-Foulkes estimate   =    -102.76861062 Ry
     estimated scf accuracy    <       0.00074226 Ry

     total magnetization       =     1.00 Bohr mag/cell
     absolute magnetization    =     1.21 Bohr mag/cell

     iteration #  3     ecut=   120.00 Ry     beta=0.70
     CG style diagonalization
     ethr =  1.57E-07,  avg # of iterations =  3.7
 
     Magnetic moment per site:
     atom:    1    charge:    0.8353    magn:    0.0457    constr:    0.0000
     atom:    2    charge:    0.8368    magn:    0.0458    constr:    0.0000
     atom:    3    charge:    0.8425    magn:   -0.0094    constr:    0.0000
     atom:    4    charge:    0.8382    magn:    0.0251    constr:    0.0000
     atom:    5    charge:    0.8397    magn:    0.0251    constr:    0.0000
     atom:    6    charge:    0.8425    magn:   -0.0094    constr:    0.0000
     atom:    7    charge:    0.4899    magn:   -0.0019    constr:    0.0000
     atom:    8    charge:    0.4897    magn:   -0.0019    constr:    0.0000
     atom:    9    charge:    0.4908    magn:    0.0001    constr:    0.0000
     atom:   10    charge:    0.4921    magn:   -0.0012    constr:    0.0000
     atom:   11    charge:    0.4918    magn:   -0.0012    constr:    0.0000
     atom:   12    charge:    0.4908    magn:    0.0001    constr:    0.0000
     atom:   13    charge:    6.4545    magn:    0.3579    constr:    0.0000

     total cpu time spent up to now is      435.0 secs

     End of self-consistent calculation

 ------ SPIN UP ------------


          k = 0.0000 0.0000 0.0000 (****** PWs)   bands (ev):

   -21.2168 -18.6192 -18.4034 -18.2131 -14.7082 -14.6985 -12.6869 -10.9388
   -10.8861 -10.1577  -9.9371  -9.2057  -8.0801  -8.0771  -7.2139  -6.6113
    -6.4433  -6.2372  -5.9704  -1.3604  -1.0099  -0.3454   0.0985   0.3094
     0.3119   0.3177   0.3246   0.3594   0.4286   0.4457   0.4503   0.5335
     0.5412   0.5468   0.5540   0.5632   0.5917   0.6133   0.6251   0.6303

     occupation numbers 
     1.0000   1.0000   1.0000   1.0000   1.0000   1.0000   1.0000   1.0000
     1.0000   1.0000   1.0000   1.0000   1.0000   1.0000   1.0000   1.0000
     1.0000   1.0000   1.0000   0.0000   0.0000   0.0000   0.0000   0.0000
     0.0000   0.0000   0.0000   0.0000   0.0000   0.0000   0.0000   0.0000
     0.0000   0.0000   0.0000   0.0000   0.0000   0.0000   0.0000   0.0000

 ------ SPIN DOWN ----------


          k = 0.0000 0.0000 0.0000 (****** PWs)   bands (ev):

   -21.0594 -18.3262 -18.1676 -18.0229 -14.6171 -14.5726 -12.6520 -10.8724
   -10.8197 -10.0886  -9.9306  -8.8048  -8.0511  -8.0303  -6.5580  -6.4802
    -6.2960  -5.8463  -5.4739  -0.8394  -0.7704  -0.2989   0.0994   0.3107
     0.3128   0.3183   0.3247   0.3609   0.4320   0.4551   0.4572   0.5412
     0.5461   0.5474   0.5547   0.5633   0.5925   0.6133   0.6264   0.6311

     occupation numbers 
     1.0000   1.0000   1.0000   1.0000   1.0000   1.0000   1.0000   1.0000
     1.0000   1.0000   1.0000   1.0000   1.0000   1.0000   1.0000   1.0000
     1.0000   1.0000   0.0000   0.0000   0.0000   0.0000   0.0000   0.0000
     0.0000   0.0000   0.0000   0.0000   0.0000   0.0000   0.0000   0.0000
     0.0000   0.0000   0.0000   0.0000   0.0000   0.0000   0.0000   0.0000

     highest occupied, lowest unoccupied level (ev):    -5.8463   -5.4739

     The total energy is the sum of the following terms:

     one-electron contribution =    -689.41223762 Ry
     hartree contribution      =     348.97668704 Ry
     xc contribution           =     -30.79354874 Ry
     ewald contribution        =     268.46058250 Ry

!    total energy              =    -102.76851682 Ry
     Harris-Foulkes estimate   =    -102.76851777 Ry
     estimated scf accuracy    <       0.00000123 Ry

     The total energy is the sum of the following terms:

     one-electron contribution =    -689.41223762 Ry
     hartree contribution      =     348.97668704 Ry
     xc contribution           =     -30.79354874 Ry
     ewald contribution        =     268.46058250 Ry

     total magnetization       =     1.00 Bohr mag/cell
     absolute magnetization    =     1.21 Bohr mag/cell

     convergence has been achieved in   3 iterations
 
     Using Hirshfeld
        Amplitude [Ry a.u.] :  1.1792E-01
        Acceptor Fragment start :          13
        Acceptor Fragment end   :          13
        Donor Fragment start :           1
        Donor Fragment end   :          12
 
 
     Using Hirshfeld
        Amplitude [Ry a.u.] :  1.1792E-01
        Acceptor Fragment start :          13
        Acceptor Fragment end   :          13
        Donor Fragment start :           1
        Donor Fragment end   :          12
 
     E field correction              : -0.2593848278997626E+01 Ry    
 
     Donor charge                    :      0.6598843662767280 e     
     Acceptor charge                 :     -0.3430915040993581 e     
     Difference of charges           :      1.0029758703760798 e     
 
     epcdft_thr                      :  0.1000000000000000E-02 e     
     Surplus(+)/deficit(-) charge    :  0.2975870376079826E-02 e     
 
     -----------------------------------------------
 
                      SCF converged but...
 
     electron localization condition NOT satisfied
     restarting scf with different applied potential
 
     New field Amp                   :  0.1183206999953424E+00 Ry    
     charge density from previous step
 
     Using Hirshfeld
        Amplitude [Ry a.u.] :  1.1832E-01
        Acceptor Fragment start :          13
        Acceptor Fragment end   :          13
        Donor Fragment start :           1
        Donor Fragment end   :          12
 

     total cpu time spent up to now is      460.3 secs

     per-process dynamical memory:    81.9 Mb

     Self-consistent Calculation

     iteration #  1     ecut=   120.00 Ry     beta=0.70
     CG style diagonalization
     ethr =  1.57E-07,  avg # of iterations =  2.5
 
     Magnetic moment per site:
     atom:    1    charge:    0.8354    magn:    0.0458    constr:    0.0000
     atom:    2    charge:    0.8369    magn:    0.0459    constr:    0.0000
     atom:    3    charge:    0.8422    magn:   -0.0094    constr:    0.0000
     atom:    4    charge:    0.8382    magn:    0.0252    constr:    0.0000
     atom:    5    charge:    0.8398    magn:    0.0253    constr:    0.0000
     atom:    6    charge:    0.8422    magn:   -0.0094    constr:    0.0000
     atom:    7    charge:    0.4898    magn:   -0.0019    constr:    0.0000
     atom:    8    charge:    0.4896    magn:   -0.0019    constr:    0.0000
     atom:    9    charge:    0.4908    magn:    0.0001    constr:    0.0000
     atom:   10    charge:    0.4920    magn:   -0.0012    constr:    0.0000
     atom:   11    charge:    0.4917    magn:   -0.0012    constr:    0.0000
     atom:   12    charge:    0.4908    magn:    0.0001    constr:    0.0000
     atom:   13    charge:    6.4570    magn:    0.3556    constr:    0.0000

     total cpu time spent up to now is      468.2 secs

     The total energy is the sum of the following terms:

     one-electron contribution =    -689.39654783 Ry
     hartree contribution      =     348.97236808 Ry
     xc contribution           =     -30.79401143 Ry
     ewald contribution        =     268.46058250 Ry

     total energy              =    -102.75965604 Ry
     Harris-Foulkes estimate   =    -102.75966440 Ry
     estimated scf accuracy    <       0.00001157 Ry

     total magnetization       =     1.00 Bohr mag/cell
     absolute magnetization    =     1.21 Bohr mag/cell

     iteration #  2     ecut=   120.00 Ry     beta=0.70
     CG style diagonalization
     ethr =  3.13E-08,  avg # of iterations =  4.4
 
     Magnetic moment per site:
     atom:    1    charge:    0.8355    magn:    0.0457    constr:    0.0000
     atom:    2    charge:    0.8370    magn:    0.0458    constr:    0.0000
     atom:    3    charge:    0.8423    magn:   -0.0094    constr:    0.0000
     atom:    4    charge:    0.8384    magn:    0.0251    constr:    0.0000
     atom:    5    charge:    0.8399    magn:    0.0252    constr:    0.0000
     atom:    6    charge:    0.8423    magn:   -0.0094    constr:    0.0000
     atom:    7    charge:    0.4898    magn:   -0.0019    constr:    0.0000
     atom:    8    charge:    0.4896    magn:   -0.0019    constr:    0.0000
     atom:    9    charge:    0.4908    magn:    0.0001    constr:    0.0000
     atom:   10    charge:    0.4920    magn:   -0.0012    constr:    0.0000
     atom:   11    charge:    0.4917    magn:   -0.0012    constr:    0.0000
     atom:   12    charge:    0.4908    magn:    0.0001    constr:    0.0000
     atom:   13    charge:    6.4550    magn:    0.3571    constr:    0.0000

     total cpu time spent up to now is      478.6 secs

     The total energy is the sum of the following terms:

     one-electron contribution =    -689.43734904 Ry
     hartree contribution      =     348.97894611 Ry
     xc contribution           =     -30.79383471 Ry
     ewald contribution        =     268.46058250 Ry

     total energy              =    -102.75965096 Ry
     Harris-Foulkes estimate   =    -102.75967523 Ry
     estimated scf accuracy    <       0.00009213 Ry

     total magnetization       =     1.00 Bohr mag/cell
     absolute magnetization    =     1.21 Bohr mag/cell

     iteration #  3     ecut=   120.00 Ry     beta=0.70
     CG style diagonalization
     ethr =  3.13E-08,  avg # of iterations =  3.6
 
     Magnetic moment per site:
     atom:    1    charge:    0.8354    magn:    0.0458    constr:    0.0000
     atom:    2    charge:    0.8368    magn:    0.0459    constr:    0.0000
     atom:    3    charge:    0.8426    magn:   -0.0094    constr:    0.0000
     atom:    4    charge:    0.8382    magn:    0.0252    constr:    0.0000
     atom:    5    charge:    0.8396    magn:    0.0253    constr:    0.0000
     atom:    6    charge:    0.8425    magn:   -0.0094    constr:    0.0000
     atom:    7    charge:    0.4899    magn:   -0.0019    constr:    0.0000
     atom:    8    charge:    0.4896    magn:   -0.0019    constr:    0.0000
     atom:    9    charge:    0.4908    magn:    0.0001    constr:    0.0000
     atom:   10    charge:    0.4920    magn:   -0.0012    constr:    0.0000
     atom:   11    charge:    0.4917    magn:   -0.0012    constr:    0.0000
     atom:   12    charge:    0.4908    magn:    0.0001    constr:    0.0000
     atom:   13    charge:    6.4565    magn:    0.3556    constr:    0.0000

     total cpu time spent up to now is      487.2 secs

     End of self-consistent calculation

 ------ SPIN UP ------------


          k = 0.0000 0.0000 0.0000 (****** PWs)   bands (ev):

   -21.2128 -18.6168 -18.4024 -18.2095 -14.7043 -14.6945 -12.6829 -10.9348
   -10.8821 -10.1533  -9.9334  -9.2023  -8.0760  -8.0731  -7.2121  -6.6117
    -6.4452  -6.2347  -5.9680  -1.3565  -1.0062  -0.3482   0.0986   0.3094
     0.3118   0.3178   0.3246   0.3597   0.4291   0.4447   0.4492   0.5356
     0.5412   0.5468   0.5541   0.5633   0.5918   0.6134   0.6253   0.6304

     occupation numbers 
     1.0000   1.0000   1.0000   1.0000   1.0000   1.0000   1.0000   1.0000
     1.0000   1.0000   1.0000   1.0000   1.0000   1.0000   1.0000   1.0000
     1.0000   1.0000   1.0000   0.0000   0.0000   0.0000   0.0000   0.0000
     0.0000   0.0000   0.0000   0.0000   0.0000   0.0000   0.0000   0.0000
     0.0000   0.0000   0.0000   0.0000   0.0000   0.0000   0.0000   0.0000

 ------ SPIN DOWN ----------


          k = 0.0000 0.0000 0.0000 (****** PWs)   bands (ev):

   -21.0553 -18.3224 -18.1639 -18.0238 -14.6130 -14.5685 -12.6479 -10.8683
   -10.8156 -10.0841  -9.9269  -8.8009  -8.0469  -8.0262  -6.5571  -6.4808
    -6.2976  -5.8439  -5.4719  -0.8355  -0.7658  -0.3015   0.0994   0.3107
     0.3128   0.3183   0.3247   0.3612   0.4324   0.4542   0.4562   0.5413
     0.5467   0.5488   0.5550   0.5634   0.5927   0.6134   0.6266   0.6313

     occupation numbers 
     1.0000   1.0000   1.0000   1.0000   1.0000   1.0000   1.0000   1.0000
     1.0000   1.0000   1.0000   1.0000   1.0000   1.0000   1.0000   1.0000
     1.0000   1.0000   0.0000   0.0000   0.0000   0.0000   0.0000   0.0000
     0.0000   0.0000   0.0000   0.0000   0.0000   0.0000   0.0000   0.0000
     0.0000   0.0000   0.0000   0.0000   0.0000   0.0000   0.0000   0.0000

     highest occupied, lowest unoccupied level (ev):    -5.8439   -5.4719

     The total energy is the sum of the following terms:

     one-electron contribution =    -689.39884923 Ry
     hartree contribution      =     348.97249028 Ry
     xc contribution           =     -30.79388474 Ry
     ewald contribution        =     268.46058250 Ry

!    total energy              =    -102.75966119 Ry
     Harris-Foulkes estimate   =    -102.75966393 Ry
     estimated scf accuracy    <       0.00000355 Ry

     The total energy is the sum of the following terms:

     one-electron contribution =    -689.39884923 Ry
     hartree contribution      =     348.97249028 Ry
     xc contribution           =     -30.79388474 Ry
     ewald contribution        =     268.46058250 Ry

     total magnetization       =     1.00 Bohr mag/cell
     absolute magnetization    =     1.21 Bohr mag/cell

     convergence has been achieved in   3 iterations
 
     Using Hirshfeld
        Amplitude [Ry a.u.] :  1.1832E-01
        Acceptor Fragment start :          13
        Acceptor Fragment end   :          13
        Donor Fragment start :           1
        Donor Fragment end   :          12
 
 
     Using Hirshfeld
        Amplitude [Ry a.u.] :  1.1832E-01
        Acceptor Fragment start :          13
        Acceptor Fragment end   :          13
        Donor Fragment start :           1
        Donor Fragment end   :          12
 
     E field correction              : -0.2602082390207678E+01 Ry    
 
     Donor charge                    :      0.6625377988798711 e     
     Acceptor charge                 :     -0.3456856961628292 e     
     Difference of charges           :      1.0082234950427207 e     
 
     epcdft_thr                      :  0.1000000000000000E-02 e     
     Surplus(+)/deficit(-) charge    :  0.8223495042720685E-02 e     
 
     -----------------------------------------------
 
                      SCF converged but...
 
     electron localization condition NOT satisfied
     restarting scf with different applied potential
 
     New field Amp                   :  0.1176898603441309E+00 Ry    
     charge density from previous step
 
     Using Hirshfeld
        Amplitude [Ry a.u.] :  1.1769E-01
        Acceptor Fragment start :          13
        Acceptor Fragment end   :          13
        Donor Fragment start :           1
        Donor Fragment end   :          12
 

     total cpu time spent up to now is      512.6 secs

     per-process dynamical memory:    81.9 Mb

     Self-consistent Calculation

     iteration #  1     ecut=   120.00 Ry     beta=0.70
     CG style diagonalization
     c_bands:  2 eigenvalues not converged
     c_bands:  4 eigenvalues not converged
     ethr =  3.13E-08,  avg # of iterations =  8.1
 
     Magnetic moment per site:
     atom:    1    charge:    0.8361    magn:    0.0454    constr:    0.0000
     atom:    2    charge:    0.8376    magn:    0.0455    constr:    0.0000
     atom:    3    charge:    0.8421    magn:   -0.0094    constr:    0.0000
     atom:    4    charge:    0.8389    magn:    0.0247    constr:    0.0000
     atom:    5    charge:    0.8405    magn:    0.0248    constr:    0.0000
     atom:    6    charge:    0.8422    magn:   -0.0094    constr:    0.0000
     atom:    7    charge:    0.4899    magn:   -0.0019    constr:    0.0000
     atom:    8    charge:    0.4896    magn:   -0.0019    constr:    0.0000
     atom:    9    charge:    0.4907    magn:    0.0001    constr:    0.0000
     atom:   10    charge:    0.4920    magn:   -0.0012    constr:    0.0000
     atom:   11    charge:    0.4917    magn:   -0.0012    constr:    0.0000
     atom:   12    charge:    0.4907    magn:    0.0001    constr:    0.0000
     atom:   13    charge:    6.4456    magn:    0.3652    constr:    0.0000

     total cpu time spent up to now is      532.5 secs

     The total energy is the sum of the following terms:

     one-electron contribution =    -689.47071038 Ry
     hartree contribution      =     349.01237143 Ry
     xc contribution           =     -30.79311685 Ry
     ewald contribution        =     268.46058250 Ry

     total energy              =    -102.77341906 Ry
     Harris-Foulkes estimate   =    -102.77356308 Ry
     estimated scf accuracy    <       0.00019748 Ry

     total magnetization       =     1.00 Bohr mag/cell
     absolute magnetization    =     1.21 Bohr mag/cell

     iteration #  2     ecut=   120.00 Ry     beta=0.70
     CG style diagonalization
     ethr =  5.34E-07,  avg # of iterations =  4.5
 
     Magnetic moment per site:
     atom:    1    charge:    0.8356    magn:    0.0457    constr:    0.0000
     atom:    2    charge:    0.8371    magn:    0.0458    constr:    0.0000
     atom:    3    charge:    0.8422    magn:   -0.0094    constr:    0.0000
     atom:    4    charge:    0.8383    magn:    0.0251    constr:    0.0000
     atom:    5    charge:    0.8398    magn:    0.0252    constr:    0.0000
     atom:    6    charge:    0.8423    magn:   -0.0094    constr:    0.0000
     atom:    7    charge:    0.4899    magn:   -0.0019    constr:    0.0000
     atom:    8    charge:    0.4896    magn:   -0.0019    constr:    0.0000
     atom:    9    charge:    0.4908    magn:    0.0001    constr:    0.0000
     atom:   10    charge:    0.4920    magn:   -0.0012    constr:    0.0000
     atom:   11    charge:    0.4918    magn:   -0.0012    constr:    0.0000
     atom:   12    charge:    0.4908    magn:    0.0001    constr:    0.0000
     atom:   13    charge:    6.4543    magn:    0.3582    constr:    0.0000

     total cpu time spent up to now is      543.1 secs

     The total energy is the sum of the following terms:

     one-electron contribution =    -689.23447481 Ry
     hartree contribution      =     348.97938519 Ry
     xc contribution           =     -30.79365610 Ry
     ewald contribution        =     268.46058250 Ry

     total energy              =    -102.77327719 Ry
     Harris-Foulkes estimate   =    -102.77385676 Ry
     estimated scf accuracy    <       0.00250245 Ry

     total magnetization       =     1.00 Bohr mag/cell
     absolute magnetization    =     1.21 Bohr mag/cell

     iteration #  3     ecut=   120.00 Ry     beta=0.70
     CG style diagonalization
     ethr =  5.34E-07,  avg # of iterations =  3.8
 
     Magnetic moment per site:
     atom:    1    charge:    0.8352    magn:    0.0456    constr:    0.0000
     atom:    2    charge:    0.8367    magn:    0.0458    constr:    0.0000
     atom:    3    charge:    0.8426    magn:   -0.0093    constr:    0.0000
     atom:    4    charge:    0.8382    magn:    0.0250    constr:    0.0000
     atom:    5    charge:    0.8396    magn:    0.0251    constr:    0.0000
     atom:    6    charge:    0.8426    magn:   -0.0094    constr:    0.0000
     atom:    7    charge:    0.4899    magn:   -0.0019    constr:    0.0000
     atom:    8    charge:    0.4897    magn:   -0.0019    constr:    0.0000
     atom:    9    charge:    0.4908    magn:    0.0001    constr:    0.0000
     atom:   10    charge:    0.4921    magn:   -0.0012    constr:    0.0000
     atom:   11    charge:    0.4918    magn:   -0.0012    constr:    0.0000
     atom:   12    charge:    0.4908    magn:    0.0001    constr:    0.0000
     atom:   13    charge:    6.4544    magn:    0.3582    constr:    0.0000

     total cpu time spent up to now is      552.1 secs

     End of self-consistent calculation

 ------ SPIN UP ------------


[...]
        Acceptor Fragment end   :          13
        Donor Fragment start :           1
        Donor Fragment end   :          12
 
 
     Using Hirshfeld
        Amplitude [Ry a.u.] :  1.1755E-01
        Acceptor Fragment start :          13
        Acceptor Fragment end   :          13
        Donor Fragment start :           1
        Donor Fragment end   :          12
 
     E field correction              : -0.2586323688276211E+01 Ry    
 
     Donor charge                    :      0.6575693275019212 e     
     Acceptor charge                 :     -0.3408086125640697 e     
     Difference of charges           :      0.9983779400659927 e     
 
     epcdft_thr                      :  0.1000000000000000E-02 e     
     Surplus(+)/deficit(-) charge    : -0.1622059934007325E-02 e     
 
     -----------------------------------------------
 
                      SCF converged but...
 
     electron localization condition NOT satisfied
     restarting scf with different applied potential
 
     New field Amp                   :  0.1175744056116802E+00 Ry    
     charge density from previous step
 
     Using Hirshfeld
        Amplitude [Ry a.u.] :  1.1757E-01
        Acceptor Fragment start :          13
        Acceptor Fragment end   :          13
        Donor Fragment start :           1
        Donor Fragment end   :          12
 

     total cpu time spent up to now is      746.5 secs

     per-process dynamical memory:    81.9 Mb

     Self-consistent Calculation

     iteration #  1     ecut=   120.00 Ry     beta=0.70
     CG style diagonalization
     ethr =  3.61E-08,  avg # of iterations =  4.9
 
     Magnetic moment per site:
     atom:    1    charge:    0.8353    magn:    0.0458    constr:    0.0000
     atom:    2    charge:    0.8368    magn:    0.0460    constr:    0.0000
     atom:    3    charge:    0.8427    magn:   -0.0094    constr:    0.0000
     atom:    4    charge:    0.8375    magn:    0.0253    constr:    0.0000
     atom:    5    charge:    0.8390    magn:    0.0254    constr:    0.0000
     atom:    6    charge:    0.8427    magn:   -0.0094    constr:    0.0000
     atom:    7    charge:    0.4899    magn:   -0.0019    constr:    0.0000
     atom:    8    charge:    0.4896    magn:   -0.0019    constr:    0.0000
     atom:    9    charge:    0.4908    magn:    0.0001    constr:    0.0000
     atom:   10    charge:    0.4920    magn:   -0.0011    constr:    0.0000
     atom:   11    charge:    0.4918    magn:   -0.0012    constr:    0.0000
     atom:   12    charge:    0.4908    magn:    0.0001    constr:    0.0000
     atom:   13    charge:    6.4599    magn:    0.3538    constr:    0.0000

     total cpu time spent up to now is      759.4 secs

     The total energy is the sum of the following terms:

     one-electron contribution =    -689.39348400 Ry
     hartree contribution      =     348.96159204 Ry
     xc contribution           =     -30.79414999 Ry
     ewald contribution        =     268.46058250 Ry

     total energy              =    -102.77600644 Ry
     Harris-Foulkes estimate   =    -102.77609558 Ry
     estimated scf accuracy    <       0.00011840 Ry

     total magnetization       =     1.00 Bohr mag/cell
     absolute magnetization    =     1.21 Bohr mag/cell

     iteration #  2     ecut=   120.00 Ry     beta=0.70
     CG style diagonalization
     ethr =  3.20E-07,  avg # of iterations =  4.2
 
     Magnetic moment per site:
     atom:    1    charge:    0.8355    magn:    0.0456    constr:    0.0000
     atom:    2    charge:    0.8370    magn:    0.0457    constr:    0.0000
     atom:    3    charge:    0.8425    magn:   -0.0094    constr:    0.0000
     atom:    4    charge:    0.8382    magn:    0.0250    constr:    0.0000
     atom:    5    charge:    0.8396    magn:    0.0251    constr:    0.0000
     atom:    6    charge:    0.8425    magn:   -0.0094    constr:    0.0000
     atom:    7    charge:    0.4899    magn:   -0.0019    constr:    0.0000
     atom:    8    charge:    0.4896    magn:   -0.0019    constr:    0.0000
     atom:    9    charge:    0.4908    magn:    0.0001    constr:    0.0000
     atom:   10    charge:    0.4920    magn:   -0.0012    constr:    0.0000
     atom:   11    charge:    0.4918    magn:   -0.0012    constr:    0.0000
     atom:   12    charge:    0.4908    magn:    0.0001    constr:    0.0000
     atom:   13    charge:    6.4536    magn:    0.3590    constr:    0.0000

     total cpu time spent up to now is      769.4 secs

     The total energy is the sum of the following terms:

     one-electron contribution =    -689.55538288 Ry
     hartree contribution      =     348.98447569 Ry
     xc contribution           =     -30.79374303 Ry
     ewald contribution        =     268.46058250 Ry

     total energy              =    -102.77592327 Ry
     Harris-Foulkes estimate   =    -102.77626051 Ry
     estimated scf accuracy    <       0.00144266 Ry

     total magnetization       =     1.00 Bohr mag/cell
     absolute magnetization    =     1.21 Bohr mag/cell

     iteration #  3     ecut=   120.00 Ry     beta=0.70
     CG style diagonalization
     ethr =  3.20E-07,  avg # of iterations =  3.8
 
     Magnetic moment per site:
     atom:    1    charge:    0.8355    magn:    0.0456    constr:    0.0000
     atom:    2    charge:    0.8370    magn:    0.0457    constr:    0.0000
     atom:    3    charge:    0.8424    magn:   -0.0094    constr:    0.0000
     atom:    4    charge:    0.8383    magn:    0.0250    constr:    0.0000
     atom:    5    charge:    0.8398    magn:    0.0251    constr:    0.0000
     atom:    6    charge:    0.8424    magn:   -0.0094    constr:    0.0000
     atom:    7    charge:    0.4899    magn:   -0.0019    constr:    0.0000
     atom:    8    charge:    0.4896    magn:   -0.0019    constr:    0.0000
     atom:    9    charge:    0.4908    magn:    0.0001    constr:    0.0000
     atom:   10    charge:    0.4920    magn:   -0.0012    constr:    0.0000
     atom:   11    charge:    0.4917    magn:   -0.0012    constr:    0.0000
     atom:   12    charge:    0.4908    magn:    0.0001    constr:    0.0000
     atom:   13    charge:    6.4540    magn:    0.3587    constr:    0.0000

     total cpu time spent up to now is      778.5 secs

     The total energy is the sum of the following terms:

     one-electron contribution =    -689.41599171 Ry
     hartree contribution      =     348.98189499 Ry
     xc contribution           =     -30.79374826 Ry
     ewald contribution        =     268.46058250 Ry

     total energy              =    -102.77607669 Ry
     Harris-Foulkes estimate   =    -102.77608126 Ry
     estimated scf accuracy    <       0.00001210 Ry

     total magnetization       =     1.00 Bohr mag/cell
     absolute magnetization    =     1.21 Bohr mag/cell

     iteration #  4     ecut=   120.00 Ry     beta=0.70
     CG style diagonalization
     ethr =  3.27E-08,  avg # of iterations =  3.9
 
     Magnetic moment per site:
     atom:    1    charge:    0.8355    magn:    0.0456    constr:    0.0000
     atom:    2    charge:    0.8370    magn:    0.0458    constr:    0.0000
     atom:    3    charge:    0.8423    magn:   -0.0094    constr:    0.0000
     atom:    4    charge:    0.8383    magn:    0.0250    constr:    0.0000
     atom:    5    charge:    0.8398    magn:    0.0251    constr:    0.0000
     atom:    6    charge:    0.8423    magn:   -0.0094    constr:    0.0000
     atom:    7    charge:    0.4899    magn:   -0.0019    constr:    0.0000
     atom:    8    charge:    0.4896    magn:   -0.0019    constr:    0.0000
     atom:    9    charge:    0.4908    magn:    0.0001    constr:    0.0000
     atom:   10    charge:    0.4920    magn:   -0.0012    constr:    0.0000
     atom:   11    charge:    0.4917    magn:   -0.0012    constr:    0.0000
     atom:   12    charge:    0.4908    magn:    0.0001    constr:    0.0000
     atom:   13    charge:    6.4542    magn:    0.3586    constr:    0.0000

     total cpu time spent up to now is      787.8 secs

     End of self-consistent calculation

 ------ SPIN UP ------------


          k = 0.0000 0.0000 0.0000 (****** PWs)   bands (ev):

   -21.2184 -18.6221 -18.4067 -18.2139 -14.7100 -14.7003 -12.6889 -10.9411
   -10.8877 -10.1603  -9.9382  -9.2078  -8.0820  -8.0789  -7.2168  -6.6135
    -6.4459  -6.2403  -5.9717  -1.3627  -1.0111  -0.3440   0.0985   0.3094
     0.3119   0.3177   0.3246   0.3591   0.4281   0.4461   0.4508   0.5318
     0.5411   0.5468   0.5540   0.5631   0.5916   0.6132   0.6250   0.6301

     occupation numbers 
     1.0000   1.0000   1.0000   1.0000   1.0000   1.0000   1.0000   1.0000
     1.0000   1.0000   1.0000   1.0000   1.0000   1.0000   1.0000   1.0000
     1.0000   1.0000   1.0000   0.0000   0.0000   0.0000   0.0000   0.0000
     0.0000   0.0000   0.0000   0.0000   0.0000   0.0000   0.0000   0.0000
     0.0000   0.0000   0.0000   0.0000   0.0000   0.0000   0.0000   0.0000

 ------ SPIN DOWN ----------


          k = 0.0000 0.0000 0.0000 (****** PWs)   bands (ev):

   -21.0612 -18.3290 -18.1684 -18.0256 -14.6191 -14.5746 -12.6541 -10.8749
   -10.8213 -10.0914  -9.9317  -8.8071  -8.0531  -8.0322  -6.5602  -6.4822
    -6.2981  -5.8476  -5.4768  -0.8411  -0.7735  -0.2975   0.0994   0.3107
     0.3128   0.3182   0.3247   0.3606   0.4317   0.4555   0.4576   0.5412
     0.5448   0.5471   0.5545   0.5632   0.5924   0.6133   0.6262   0.6310

     occupation numbers 
     1.0000   1.0000   1.0000   1.0000   1.0000   1.0000   1.0000   1.0000
     1.0000   1.0000   1.0000   1.0000   1.0000   1.0000   1.0000   1.0000
     1.0000   1.0000   0.0000   0.0000   0.0000   0.0000   0.0000   0.0000
     0.0000   0.0000   0.0000   0.0000   0.0000   0.0000   0.0000   0.0000
     0.0000   0.0000   0.0000   0.0000   0.0000   0.0000   0.0000   0.0000

     highest occupied, lowest unoccupied level (ev):    -5.8476   -5.4768

     The total energy is the sum of the following terms:

     one-electron contribution =    -689.42446012 Ry
     hartree contribution      =     348.98158020 Ry
     xc contribution           =     -30.79378164 Ry
     ewald contribution        =     268.46058250 Ry

!    total energy              =    -102.77607906 Ry
     Harris-Foulkes estimate   =    -102.77607918 Ry
     estimated scf accuracy    <       0.00000015 Ry

     The total energy is the sum of the following terms:

     one-electron contribution =    -689.42446012 Ry
     hartree contribution      =     348.98158020 Ry
     xc contribution           =     -30.79378164 Ry
     ewald contribution        =     268.46058250 Ry

     total magnetization       =     1.00 Bohr mag/cell
     absolute magnetization    =     1.21 Bohr mag/cell

     convergence has been achieved in   4 iterations
 
     Using Hirshfeld
        Amplitude [Ry a.u.] :  1.1757E-01
        Acceptor Fragment start :          13
        Acceptor Fragment end   :          13
        Donor Fragment start :           1
        Donor Fragment end   :          12
 
 
     Using Hirshfeld
        Amplitude [Ry a.u.] :  1.1757E-01
        Acceptor Fragment start :          13
        Acceptor Fragment end   :          13
        Donor Fragment start :           1
        Donor Fragment end   :          12
 
     E field correction              : -0.2586452674295225E+01 Ry    
 
     Donor charge                    :      0.6591662325737992 e     
     Acceptor charge                 :     -0.3424008530583516 e     
     Difference of charges           :      1.0015670856321535 e     
 
     epcdft_thr                      :  0.1000000000000000E-02 e     
     Surplus(+)/deficit(-) charge    :  0.1567085632153464E-02 e     
 
     -----------------------------------------------
 
                      SCF converged but...
 
     electron localization condition NOT satisfied
     restarting scf with different applied potential
 
     New field Amp                   :  0.1175631505122194E+00 Ry    
     charge density from previous step
 
     Using Hirshfeld
        Amplitude [Ry a.u.] :  1.1756E-01
        Acceptor Fragment start :          13
        Acceptor Fragment end   :          13
        Donor Fragment start :           1
        Donor Fragment end   :          12
 

     total cpu time spent up to now is      813.2 secs

     per-process dynamical memory:    81.9 Mb

     Self-consistent Calculation

     iteration #  1     ecut=   120.00 Ry     beta=0.70
     CG style diagonalization
     ethr =  3.27E-08,  avg # of iterations =  2.2

     Threshold (ethr) on eigenvalues was too large:
     Diagonalizing with lowered threshold

     CG style diagonalization
     ethr =  1.35E-09,  avg # of iterations =  5.7
 
     Magnetic moment per site:
     atom:    1    charge:    0.8354    magn:    0.0456    constr:    0.0000
     atom:    2    charge:    0.8369    magn:    0.0457    constr:    0.0000
     atom:    3    charge:    0.8425    magn:   -0.0094    constr:    0.0000
     atom:    4    charge:    0.8383    magn:    0.0250    constr:    0.0000
     atom:    5    charge:    0.8398    magn:    0.0251    constr:    0.0000
     atom:    6    charge:    0.8425    magn:   -0.0094    constr:    0.0000
     atom:    7    charge:    0.4899    magn:   -0.0019    constr:    0.0000
     atom:    8    charge:    0.4896    magn:   -0.0019    constr:    0.0000
     atom:    9    charge:    0.4908    magn:    0.0001    constr:    0.0000
     atom:   10    charge:    0.4920    magn:   -0.0012    constr:    0.0000
     atom:   11    charge:    0.4918    magn:   -0.0012    constr:    0.0000
     atom:   12    charge:    0.4908    magn:    0.0001    constr:    0.0000
     atom:   13    charge:    6.4535    magn:    0.3591    constr:    0.0000

     total cpu time spent up to now is      833.2 secs

     End of self-consistent calculation

 ------ SPIN UP ------------


          k = 0.0000 0.0000 0.0000 (****** PWs)   bands (ev):

   -21.2191 -18.6213 -18.4053 -18.2156 -14.7107 -14.7010 -12.6895 -10.9416
   -10.8885 -10.1602  -9.9398  -9.2081  -8.0827  -8.0797  -7.2160  -6.6124
    -6.4442  -6.2394  -5.9725  -1.3627  -1.0125  -0.3436   0.0985   0.3095
     0.3119   0.3177   0.3246   0.3591   0.4281   0.4463   0.4509   0.5317
     0.5411   0.5468   0.5540   0.5631   0.5915   0.6132   0.6250   0.6301

     occupation numbers 
     1.0000   1.0000   1.0000   1.0000   1.0000   1.0000   1.0000   1.0000
     1.0000   1.0000   1.0000   1.0000   1.0000   1.0000   1.0000   1.0000
     1.0000   1.0000   1.0000   0.0000   0.0000   0.0000   0.0000   0.0000
     0.0000   0.0000   0.0000   0.0000   0.0000   0.0000   0.0000   0.0000
     0.0000   0.0000   0.0000   0.0000   0.0000   0.0000   0.0000   0.0000

 ------ SPIN DOWN ----------


          k = 0.0000 0.0000 0.0000 (****** PWs)   bands (ev):

   -21.0620 -18.3286 -18.1702 -18.0238 -14.6198 -14.5752 -12.6547 -10.8753
   -10.8222 -10.0913  -9.9333  -8.8077  -8.0537  -8.0329  -6.5593  -6.4812
    -6.2965  -5.8486  -5.4758  -0.8424  -0.7735  -0.2970   0.0994   0.3107
     0.3128   0.3182   0.3247   0.3606   0.4316   0.4557   0.4578   0.5411
     0.5447   0.5471   0.5545   0.5632   0.5924   0.6132   0.6262   0.6310

     occupation numbers 
     1.0000   1.0000   1.0000   1.0000   1.0000   1.0000   1.0000   1.0000
     1.0000   1.0000   1.0000   1.0000   1.0000   1.0000   1.0000   1.0000
     1.0000   1.0000   0.0000   0.0000   0.0000   0.0000   0.0000   0.0000
     0.0000   0.0000   0.0000   0.0000   0.0000   0.0000   0.0000   0.0000
     0.0000   0.0000   0.0000   0.0000   0.0000   0.0000   0.0000   0.0000

     highest occupied, lowest unoccupied level (ev):    -5.8486   -5.4758

     The total energy is the sum of the following terms:

     one-electron contribution =    -689.42621434 Ry
     hartree contribution      =     348.98294974 Ry
     xc contribution           =     -30.79364421 Ry
     ewald contribution        =     268.46058250 Ry

!    total energy              =    -102.77632631 Ry
     Harris-Foulkes estimate   =    -102.77632712 Ry
     estimated scf accuracy    <       0.00000095 Ry

     The total energy is the sum of the following terms:

     one-electron contribution =    -689.42621434 Ry
     hartree contribution      =     348.98294974 Ry
     xc contribution           =     -30.79364421 Ry
     ewald contribution        =     268.46058250 Ry

     total magnetization       =     1.00 Bohr mag/cell
     absolute magnetization    =     1.21 Bohr mag/cell

     convergence has been achieved in   1 iterations
 
     Using Hirshfeld
        Amplitude [Ry a.u.] :  1.1756E-01
        Acceptor Fragment start :          13
        Acceptor Fragment end   :          13
        Donor Fragment start :           1
        Donor Fragment end   :          12
 
 
     Using Hirshfeld
        Amplitude [Ry a.u.] :  1.1756E-01
        Acceptor Fragment start :          13
        Acceptor Fragment end   :          13
        Donor Fragment start :           1
        Donor Fragment end   :          12
 
     E field correction              : -0.2586352449383215E+01 Ry    
 
     Donor charge                    :      0.6585402797831321 e     
     Acceptor charge                 :     -0.3417732698747580 e     
     Difference of charges           :      1.0003135496579034 e     

     Writing output data file left.save
 
     init_run     :     82.69s CPU     82.69s WALL (       1 calls)
     electrons    :    565.80s CPU    565.80s WALL (      12 calls)
     update_pot   :     10.59s CPU     10.59s WALL (      11 calls)

     Called by init_run:
     wfcinit      :      9.75s CPU      9.75s WALL (       1 calls)
     potinit      :      3.00s CPU      3.00s WALL (       1 calls)

     Called by electrons:
     c_bands      :    375.40s CPU    375.40s WALL (      42 calls)
     sum_band     :     24.22s CPU     24.22s WALL (      42 calls)
     v_of_rho     :     47.11s CPU     47.11s WALL (      51 calls)
     v_h          :      1.13s CPU      1.13s WALL (      51 calls)
     v_xc         :     45.97s CPU     45.97s WALL (      51 calls)
     mix_rho      :      1.39s CPU      1.39s WALL (      42 calls)

     Called by c_bands:
     init_us_2    :      1.68s CPU      1.68s WALL (     170 calls)
     rcgdiagg     :    337.80s CPU    337.80s WALL (      84 calls)
     wfcrot       :     42.12s CPU     42.12s WALL (      56 calls)

     Called by sum_band:

     Called by *cgdiagg:
     h_psi        :    332.25s CPU    332.25s WALL (   12841 calls)
     rdiaghg      :      4.18s CPU      4.18s WALL (      56 calls)
     rdiaghg:chol :      0.32s CPU      0.32s WALL (      56 calls)
     rdiaghg:inve :      0.06s CPU      0.06s WALL (      56 calls)
     rdiaghg:para :      0.30s CPU      0.30s WALL (     112 calls)

     Called by h_psi:
     h_psi:vloc   :    276.15s CPU    276.15s WALL (   12841 calls)
     h_psi:vnl    :     55.66s CPU     55.66s WALL (   12841 calls)
     add_vuspsi   :     35.18s CPU     35.19s WALL (   12841 calls)

     General routines
     calbec       :     26.96s CPU     26.99s WALL (   25626 calls)
     fft          :    133.71s CPU    133.72s WALL (    8525 calls)
     fftw         :    260.90s CPU    260.91s WALL (   29826 calls)
 
     Parallel routines
     fft_scatter  :    182.54s CPU    182.58s WALL (   38351 calls)
 
     PWSCF        : 15m33.11s CPU    15m33.11s WALL

 
   This run was terminated on:  14:20:30  20Aug2015            

=------------------------------------------------------------------------------=
   JOB DONE.
=------------------------------------------------------------------------------=
2015-08-20 14:20:48.874 (INFO ) [0xfffb58bc410] CET-20400-31731-128:1292135:ibm.runjob.client.Job: exited with status 0
2015-08-20 14:20:48.875 (INFO ) [0xfffb58bc410] tatu.runjob.client: task exited with status 0
2015-08-20 14:20:48.875 (INFO ) [0xfff846034e0] 853:tatu.runjob.monitor: monitor terminating
2015-08-20 14:20:48.879 (INFO ) [0xfffb58bc410] tatu.runjob.client: monitor completed
