2015-08-19 23:55:22.221 (INFO ) [0xfffa099c410] ibm.runjob.AbstractOptions: using properties file /bgsys/local/etc/bg.properties
2015-08-19 23:55:22.222 (INFO ) [0xfffa099c410] ibm.runjob.AbstractOptions: max open file descriptors: 65536
2015-08-19 23:55:22.222 (INFO ) [0xfffa099c410] ibm.runjob.AbstractOptions: core file limit: 18446744073709551615
2015-08-19 23:55:22.223 (INFO ) [0xfffa099c410] 44732:tatu.runjob.client: scheduler job id is 563766
2015-08-19 23:55:22.230 (INFO ) [0xfff943434e0] 44732:tatu.runjob.monitor: monitor started
2015-08-19 23:55:25.942 (INFO ) [0xfff943434e0] 44732:tatu.runjob.monitor: task record 1232222 created
2015-08-19 23:55:25.943 (INFO ) [0xfffa099c410] CET-42400-53731-128:44732:ibm.runjob.client.options.Parser: set local socket to runjob_mux from properties file
2015-08-19 23:55:28.627 (INFO ) [0xfffa099c410] CET-42400-53731-128:1291014:ibm.runjob.client.Job: job 1291014 started

     Program PWSCF v.5.1.1 starts on 19Aug2015 at 23:55:28 

     This program is part of the open-source Quantum ESPRESSO suite
     for quantum simulation of materials; please cite
         "P. Giannozzi et al., J. Phys.:Condens. Matter 21 395502 (2009);
          URL http://www.quantum-espresso.org", 
     in publications or presentations arising from this work. More details at
     http://www.quantum-espresso.org/quote

     Parallel version (MPI & OpenMP), running on     512 processor cores
     Number of MPI processes:               512
     Threads/MPI process:                     1
     R & G space division:  proc/nbgrp/npool/nimage =     512
     Waiting for input...
     Reading input from standard input

     Current dimensions of program PWSCF are:
     Max number of different atomic species (ntypx) = 10
     Max number of k-points (npk) =  40000
     Max angular momentum in pseudopotentials (lmaxx) =  3
               file C.pbe-mt_fhi.UPF: wavefunction(s)  4f renormalized
               file H.pbe-mt_fhi.UPF: wavefunction(s)  2p 4f renormalized
               file Cl.pbe-mt_fhi.UPF: wavefunction(s)  4f renormalized

     gamma-point specific algorithms are used
     Message from routine setup:
     the system is metallic, specify occupations

     Subspace diagonalization in iterative solution of the eigenvalue problem:
     scalapack distributed-memory algorithm (size of sub-group: 16* 16 procs)

 
     Parallelization info
     --------------------
     sticks:   dense  smooth     PW     G-vecs:    dense   smooth      PW
     Min          21      21      4                 1786     1786     192
     Max          24      24      6                 1810     1810     250
     Sum       11449   11449   2869               922329   922329  115313
     Tot        5725    5725   1435
 
     Generating pointlists ...
     new r_m :   0.0373 (alat units)  0.8450 (a.u.) for type    1
     new r_m :   0.0373 (alat units)  0.8450 (a.u.) for type    2
     new r_m :   0.1059 (alat units)  2.4011 (a.u.) for type    3


     bravais-lattice index     =            1
     lattice parameter (alat)  =      22.6767  a.u.
     unit-cell volume          =   11661.1222 (a.u.)^3
     number of atoms/cell      =           13
     number of atomic types    =            3
     number of electrons       =        37.00 (up:  19.00, down:  18.00)
     number of Kohn-Sham states=           40
     kinetic-energy cutoff     =      70.0000  Ry
     charge density cutoff     =     280.0000  Ry
     convergence threshold     =      1.0E-04
     mixing beta               =       0.7000
     number of iterations used =            8  plain     mixing
     Exchange-correlation      = PBE ( 1  4  3  4 0 0)
     Assuming isolated system, Martyna-Tuckerman method


     celldm(1)=  22.676714  celldm(2)=   0.000000  celldm(3)=   0.000000
     celldm(4)=   0.000000  celldm(5)=   0.000000  celldm(6)=   0.000000

     crystal axes: (cart. coord. in units of alat)
               a(1) = (   1.000000   0.000000   0.000000 )  
               a(2) = (   0.000000   1.000000   0.000000 )  
               a(3) = (   0.000000   0.000000   1.000000 )  

     reciprocal axes: (cart. coord. in units 2 pi/alat)
               b(1) = (  1.000000  0.000000  0.000000 )  
               b(2) = (  0.000000  1.000000  0.000000 )  
               b(3) = (  0.000000  0.000000  1.000000 )  


     PseudoPot. # 1 for  C read from file:
     ./C.pbe-mt_fhi.UPF
     MD5 check sum: 058ca341f9d6d5327d9962fd88a91b65
     Pseudo is Norm-conserving, Zval =  4.0
     Generated using FHI98PP, converted with fhi2upf.x v.5.0.2
     Using radial grid of  461 points,  3 beta functions with: 
                l(1) =   0
                l(2) =   1
                l(3) =   3

     PseudoPot. # 2 for  H read from file:
     ./H.pbe-mt_fhi.UPF
     MD5 check sum: a19bd5488733b3d98581df861506e80d
     Pseudo is Norm-conserving, Zval =  1.0
     Generated using FHI98PP, converted with fhi2upf.x v.5.0.2
     Using radial grid of  387 points,  3 beta functions with: 
                l(1) =   0
                l(2) =   1
                l(3) =   3

     PseudoPot. # 3 for Cl read from file:
     ./Cl.pbe-mt_fhi.UPF
     MD5 check sum: 2690b95bbfe21454a1a3af22474751ef
     Pseudo is Norm-conserving, Zval =  7.0
     Generated using FHI98PP, converted with fhi2upf.x v.5.0.2
     Using radial grid of  503 points,  3 beta functions with: 
                l(1) =   0
                l(2) =   1
                l(3) =   3

     atomic species   valence    mass     pseudopotential
        C              4.00    12.01070      C( 1.00)
        H              1.00     1.00794      H( 1.00)
        Cl             7.00     1.00000     Cl( 1.00)

     Starting magnetic structure 
     atomic species   magnetization
        C            0.000
        H            0.000
        Cl           0.000

     No symmetry found


                                    s                        frac. trans.

      isym =  1     identity                                     

 cryst.   s( 1) = (     1          0          0      )
                  (     0          1          0      )
                  (     0          0          1      )

 cart.    s( 1) = (  1.0000000  0.0000000  0.0000000 )
                  (  0.0000000  1.0000000  0.0000000 )
                  (  0.0000000  0.0000000  1.0000000 )


     point group C_1 (1)    
     there are  1 classes
     the character table:

       E    
A      1.00

     the symmetry operations in each class:
     E        1

   Cartesian axes

     site n.     atom                  positions (alat units)
         1           C   tau(   1) = (   0.0000000   0.1164167   0.0000000  )
         2           C   tau(   2) = (   0.1008167   0.0582083   0.0000000  )
         3           C   tau(   3) = (   0.1008167  -0.0582083   0.0000000  )
         4           C   tau(   4) = (   0.0000000  -0.1164167   0.0000000  )
         5           C   tau(   5) = (  -0.1008167  -0.0582083   0.0000000  )
         6           C   tau(   6) = (  -0.1008167   0.0582083   0.0000000  )
         7           H   tau(   7) = (   0.0000000   0.2067500   0.0000000  )
         8           H   tau(   8) = (   0.1790500   0.1033750   0.0000000  )
         9           H   tau(   9) = (   0.1790500  -0.1033750   0.0000000  )
        10           H   tau(  10) = (   0.0000000  -0.2067500   0.0000000  )
        11           H   tau(  11) = (  -0.1790500  -0.1033750   0.0000000  )
        12           H   tau(  12) = (  -0.1790500   0.1033750   0.0000000  )
        13           Cl  tau(  13) = (   0.0504083   0.0873125   0.2500000  )

   Crystallographic axes

     site n.     atom                  positions (cryst. coord.)
         1           C   tau(   1) = (  0.0000000  0.1164167  0.0000000  )
         2           C   tau(   2) = (  0.1008167  0.0582083  0.0000000  )
         3           C   tau(   3) = (  0.1008167 -0.0582083  0.0000000  )
         4           C   tau(   4) = (  0.0000000 -0.1164167  0.0000000  )
         5           C   tau(   5) = ( -0.1008167 -0.0582083  0.0000000  )
         6           C   tau(   6) = ( -0.1008167  0.0582083  0.0000000  )
         7           H   tau(   7) = (  0.0000000  0.2067500  0.0000000  )
         8           H   tau(   8) = (  0.1790500  0.1033750  0.0000000  )
         9           H   tau(   9) = (  0.1790500 -0.1033750  0.0000000  )
        10           H   tau(  10) = (  0.0000000 -0.2067500  0.0000000  )
        11           H   tau(  11) = ( -0.1790500 -0.1033750  0.0000000  )
        12           H   tau(  12) = ( -0.1790500  0.1033750  0.0000000  )
        13           Cl  tau(  13) = (  0.0504083  0.0873125  0.2500000  )

     number of k points=     2
                       cart. coord. in units 2pi/alat
        k(    1) = (   0.0000000   0.0000000   0.0000000), wk =   1.0000000
        k(    2) = (   0.0000000   0.0000000   0.0000000), wk =   1.0000000

                       cryst. coord.
        k(    1) = (   0.0000000   0.0000000   0.0000000), wk =   1.0000000
        k(    2) = (   0.0000000   0.0000000   0.0000000), wk =   1.0000000

     Dense  grid:   461165 G-vectors     FFT dimensions: ( 126, 126, 126)

     Largest allocated arrays     est. size (Mb)     dimensions
        Kohn-Sham Wavefunctions         0.08 Mb     (     125,   40)
        NL pseudopotentials             0.27 Mb     (     125,  143)
        Each V/rho on FFT grid          0.48 Mb     (   15876,   2)
        Each G-vector array             0.01 Mb     (     904)
        G-vector shells                 0.00 Mb     (     430)
     Largest temporary arrays     est. size (Mb)     dimensions
        Auxiliary wavefunctions         0.15 Mb     (     125,  160)
        Each subspace H/S matrix        0.00 Mb     (      10,   10)
        Each <psi_i|beta_j> matrix      0.04 Mb     (     143,   40)
        Arrays for rho mixing           1.94 Mb     (   15876,    8)
2015-08-19 23:55:35.076 (INFO ) [0xfff943434e0] 44732:tatu.runjob.monitor: tracklib completed
 
     Using Hirshfeld
        Amplitude [Ry a.u.] :  1.0000E-04
        Acceptor Fragment start :          13
        Acceptor Fragment end   :          13
        Donor Fragment start :           1
        Donor Fragment end   :          12
 

     Initial potential from superposition of free atoms

     starting charge   36.99968, renormalised to   37.00000

     negative rho (up, down):  7.172E-05 7.172E-05
     Starting wfc are  208 randomized atomic wfcs

     total cpu time spent up to now is       20.1 secs

     per-process dynamical memory:    44.0 Mb

     Self-consistent Calculation

     iteration #  1     ecut=    70.00 Ry     beta=0.70
     Davidson diagonalization with overlap
     ethr =  1.00E-02,  avg # of iterations =  5.5

     negative rho (up, down):  1.495E-06 2.582E-06
 
     Magnetic moment per site:
     atom:    1    charge:    0.8807    magn:    0.0025    constr:    0.0000
     atom:    2    charge:    0.8835    magn:    0.0025    constr:    0.0000
     atom:    3    charge:    0.8860    magn:    0.0014    constr:    0.0000
     atom:    4    charge:    0.8834    magn:    0.0008    constr:    0.0000
     atom:    5    charge:    0.8859    magn:    0.0011    constr:    0.0000
     atom:    6    charge:    0.8860    magn:    0.0009    constr:    0.0000
     atom:    7    charge:    0.4443    magn:    0.0002    constr:    0.0000
     atom:    8    charge:    0.4436    magn:    0.0001    constr:    0.0000
     atom:    9    charge:    0.4437    magn:    0.0000    constr:    0.0000
     atom:   10    charge:    0.4443    magn:    0.0000    constr:    0.0000
     atom:   11    charge:    0.4436    magn:    0.0000    constr:    0.0000
     atom:   12    charge:    0.4436    magn:    0.0000    constr:    0.0000
     atom:   13    charge:    6.1406    magn:    0.5642    constr:    0.0000

     total cpu time spent up to now is       24.2 secs

     The total energy is the sum of the following terms:

     one-electron contribution =    -701.51362748 Ry
     hartree contribution      =     353.34692480 Ry
     xc contribution           =     -30.94226486 Ry
     ewald contribution        =     268.46058250 Ry

     total energy              =    -104.96852375 Ry
     Harris-Foulkes estimate   =    -105.89103559 Ry
     estimated scf accuracy    <       1.48641871 Ry

     total magnetization       =     1.00 Bohr mag/cell
     absolute magnetization    =     1.01 Bohr mag/cell

     iteration #  2     ecut=    70.00 Ry     beta=0.70
     Davidson diagonalization with overlap
     ethr =  4.02E-03,  avg # of iterations = 16.5

     negative rho (up, down):  1.053E-07 2.912E-07
 
     Magnetic moment per site:
     atom:    1    charge:    0.8353    magn:    0.0171    constr:    0.0000
     atom:    2    charge:    0.8377    magn:    0.0173    constr:    0.0000
     atom:    3    charge:    0.8504    magn:    0.0009    constr:    0.0000
     atom:    4    charge:    0.8335    magn:    0.0145    constr:    0.0000
     atom:    5    charge:    0.8357    magn:    0.0151    constr:    0.0000
     atom:    6    charge:    0.8505    magn:    0.0005    constr:    0.0000
     atom:    7    charge:    0.4757    magn:    0.0006    constr:    0.0000
     atom:    8    charge:    0.4747    magn:    0.0005    constr:    0.0000
     atom:    9    charge:    0.4757    magn:    0.0000    constr:    0.0000
     atom:   10    charge:    0.4760    magn:    0.0005    constr:    0.0000
     atom:   11    charge:    0.4751    magn:    0.0004    constr:    0.0000
     atom:   12    charge:    0.4757    magn:    0.0000    constr:    0.0000
     atom:   13    charge:    6.4576    magn:    0.3665    constr:    0.0000

     total cpu time spent up to now is       30.4 secs

     The total energy is the sum of the following terms:

     one-electron contribution =    -684.77876608 Ry
     hartree contribution      =     348.71079941 Ry
     xc contribution           =     -30.71018696 Ry
     ewald contribution        =     268.46058250 Ry

     total energy              =    -105.07660034 Ry
     Harris-Foulkes estimate   =    -105.64939958 Ry
     estimated scf accuracy    <       1.06247806 Ry

     total magnetization       =     1.00 Bohr mag/cell
     absolute magnetization    =     1.07 Bohr mag/cell

     iteration #  3     ecut=    70.00 Ry     beta=0.70
     Davidson diagonalization with overlap
     ethr =  2.87E-03,  avg # of iterations =  7.0
 
     Magnetic moment per site:
     atom:    1    charge:    0.8342    magn:    0.0153    constr:    0.0000
     atom:    2    charge:    0.8367    magn:    0.0153    constr:    0.0000
     atom:    3    charge:    0.8352    magn:   -0.0002    constr:    0.0000
     atom:    4    charge:    0.8389    magn:    0.0122    constr:    0.0000
     atom:    5    charge:    0.8414    magn:    0.0127    constr:    0.0000
     atom:    6    charge:    0.8353    magn:   -0.0006    constr:    0.0000
     atom:    7    charge:    0.4888    magn:   -0.0002    constr:    0.0000
     atom:    8    charge:    0.4878    magn:   -0.0001    constr:    0.0000
     atom:    9    charge:    0.4882    magn:   -0.0002    constr:    0.0000
     atom:   10    charge:    0.4900    magn:   -0.0003    constr:    0.0000
     atom:   11    charge:    0.4890    magn:   -0.0002    constr:    0.0000
     atom:   12    charge:    0.4883    magn:   -0.0002    constr:    0.0000
     atom:   13    charge:    6.2873    magn:    0.5177    constr:    0.0000

     total cpu time spent up to now is       33.5 secs

     The total energy is the sum of the following terms:

     one-electron contribution =    -693.79296608 Ry
     hartree contribution      =     348.76217707 Ry
     xc contribution           =     -30.68620286 Ry
     ewald contribution        =     268.46058250 Ry

     total energy              =    -105.35236580 Ry
     Harris-Foulkes estimate   =    -105.44827003 Ry
     estimated scf accuracy    <       0.23025276 Ry

     total magnetization       =     1.00 Bohr mag/cell
     absolute magnetization    =     1.09 Bohr mag/cell

     iteration #  4     ecut=    70.00 Ry     beta=0.70
     Davidson diagonalization with overlap
     ethr =  6.22E-04,  avg # of iterations = 14.0
 
     Magnetic moment per site:
     atom:    1    charge:    0.8360    magn:    0.0177    constr:    0.0000
     atom:    2    charge:    0.8383    magn:    0.0176    constr:    0.0000
     atom:    3    charge:    0.8389    magn:   -0.0016    constr:    0.0000
     atom:    4    charge:    0.8354    magn:    0.0106    constr:    0.0000
     atom:    5    charge:    0.8378    magn:    0.0109    constr:    0.0000
     atom:    6    charge:    0.8391    magn:   -0.0019    constr:    0.0000
     atom:    7    charge:    0.4935    magn:   -0.0005    constr:    0.0000
     atom:    8    charge:    0.4925    magn:   -0.0004    constr:    0.0000
     atom:    9    charge:    0.4929    magn:   -0.0002    constr:    0.0000
     atom:   10    charge:    0.4951    magn:   -0.0009    constr:    0.0000
     atom:   11    charge:    0.4940    magn:   -0.0007    constr:    0.0000
     atom:   12    charge:    0.4930    magn:   -0.0003    constr:    0.0000
     atom:   13    charge:    6.2615    magn:    0.6085    constr:    0.0000

     total cpu time spent up to now is       39.0 secs

     The total energy is the sum of the following terms:

     one-electron contribution =    -693.56905193 Ry
     hartree contribution      =     349.49967806 Ry
     xc contribution           =     -30.76672817 Ry
     ewald contribution        =     268.46058250 Ry

     total energy              =    -105.38366389 Ry
     Harris-Foulkes estimate   =    -105.38848421 Ry
     estimated scf accuracy    <       0.01682454 Ry

     total magnetization       =     1.00 Bohr mag/cell
     absolute magnetization    =     1.09 Bohr mag/cell

     iteration #  5     ecut=    70.00 Ry     beta=0.70
     Davidson diagonalization with overlap
     WARNING:     1 eigenvalues not converged
     c_bands:  1 eigenvalues not converged
     ethr =  4.55E-05,  avg # of iterations = 16.5
 
     Magnetic moment per site:
     atom:    1    charge:    0.8349    magn:    0.0198    constr:    0.0000
     atom:    2    charge:    0.8375    magn:    0.0196    constr:    0.0000
     atom:    3    charge:    0.8401    magn:   -0.0017    constr:    0.0000
     atom:    4    charge:    0.8386    magn:    0.0103    constr:    0.0000
     atom:    5    charge:    0.8412    magn:    0.0104    constr:    0.0000
     atom:    6    charge:    0.8401    magn:   -0.0019    constr:    0.0000
     atom:    7    charge:    0.4936    magn:   -0.0005    constr:    0.0000
     atom:    8    charge:    0.4926    magn:   -0.0004    constr:    0.0000
     atom:    9    charge:    0.4929    magn:   -0.0002    constr:    0.0000
     atom:   10    charge:    0.4947    magn:   -0.0007    constr:    0.0000
     atom:   11    charge:    0.4937    magn:   -0.0007    constr:    0.0000
     atom:   12    charge:    0.4930    magn:   -0.0002    constr:    0.0000
     atom:   13    charge:    6.2711    magn:    0.6223    constr:    0.0000

     total cpu time spent up to now is       45.0 secs

     The total energy is the sum of the following terms:

     one-electron contribution =    -692.91980751 Ry
     hartree contribution      =     349.63856536 Ry
     xc contribution           =     -30.78782474 Ry
     ewald contribution        =     268.46058250 Ry

     total energy              =    -105.38868684 Ry
     Harris-Foulkes estimate   =    -105.38945728 Ry
     estimated scf accuracy    <       0.00194050 Ry

     total magnetization       =     1.00 Bohr mag/cell
     absolute magnetization    =     1.10 Bohr mag/cell

     iteration #  6     ecut=    70.00 Ry     beta=0.70
     Davidson diagonalization with overlap
     ethr =  5.24E-06,  avg # of iterations = 15.0
 
     Magnetic moment per site:
     atom:    1    charge:    0.8372    magn:    0.0212    constr:    0.0000
     atom:    2    charge:    0.8397    magn:    0.0211    constr:    0.0000
     atom:    3    charge:    0.8415    magn:   -0.0020    constr:    0.0000
     atom:    4    charge:    0.8383    magn:    0.0096    constr:    0.0000
     atom:    5    charge:    0.8409    magn:    0.0097    constr:    0.0000
     atom:    6    charge:    0.8415    magn:   -0.0022    constr:    0.0000
     atom:    7    charge:    0.4933    magn:   -0.0005    constr:    0.0000
     atom:    8    charge:    0.4923    magn:   -0.0005    constr:    0.0000
     atom:    9    charge:    0.4928    magn:   -0.0001    constr:    0.0000
     atom:   10    charge:    0.4943    magn:   -0.0006    constr:    0.0000
     atom:   11    charge:    0.4934    magn:   -0.0006    constr:    0.0000
     atom:   12    charge:    0.4928    magn:   -0.0001    constr:    0.0000
     atom:   13    charge:    6.2707    magn:    0.6403    constr:    0.0000

     total cpu time spent up to now is       49.9 secs

     The total energy is the sum of the following terms:

     one-electron contribution =    -692.92376184 Ry
     hartree contribution      =     349.72560750 Ry
     xc contribution           =     -30.79792535 Ry
     ewald contribution        =     268.46058250 Ry

     total energy              =    -105.38954843 Ry
     Harris-Foulkes estimate   =    -105.38965017 Ry
     estimated scf accuracy    <       0.00090975 Ry

     total magnetization       =     1.00 Bohr mag/cell
     absolute magnetization    =     1.11 Bohr mag/cell

     iteration #  7     ecut=    70.00 Ry     beta=0.70
     Davidson diagonalization with overlap
     ethr =  2.46E-06,  avg # of iterations =  7.0

     negative rho (up, down):  7.231E-07 5.010E-07
 
     Magnetic moment per site:
     atom:    1    charge:    0.8375    magn:    0.0222    constr:    0.0000
     atom:    2    charge:    0.8400    magn:    0.0222    constr:    0.0000
     atom:    3    charge:    0.8425    magn:   -0.0023    constr:    0.0000
     atom:    4    charge:    0.8385    magn:    0.0087    constr:    0.0000
     atom:    5    charge:    0.8409    magn:    0.0088    constr:    0.0000
     atom:    6    charge:    0.8425    magn:   -0.0024    constr:    0.0000
     atom:    7    charge:    0.4933    magn:   -0.0006    constr:    0.0000
     atom:    8    charge:    0.4923    magn:   -0.0006    constr:    0.0000
     atom:    9    charge:    0.4928    magn:   -0.0001    constr:    0.0000
     atom:   10    charge:    0.4941    magn:   -0.0005    constr:    0.0000
     atom:   11    charge:    0.4932    magn:   -0.0005    constr:    0.0000
     atom:   12    charge:    0.4928    magn:   -0.0001    constr:    0.0000
     atom:   13    charge:    6.2654    magn:    0.6558    constr:    0.0000

     total cpu time spent up to now is       53.1 secs

     The total energy is the sum of the following terms:

     one-electron contribution =    -692.84070135 Ry
     hartree contribution      =     349.75518811 Ry
     xc contribution           =     -30.80027396 Ry
     ewald contribution        =     268.46058250 Ry

     total energy              =    -105.38970901 Ry
     Harris-Foulkes estimate   =    -105.38970959 Ry
     estimated scf accuracy    <       0.00021206 Ry

     total magnetization       =     1.00 Bohr mag/cell
     absolute magnetization    =     1.11 Bohr mag/cell

     iteration #  8     ecut=    70.00 Ry     beta=0.70
     Davidson diagonalization with overlap
     ethr =  5.73E-07,  avg # of iterations = 15.5
 
     Magnetic moment per site:
     atom:    1    charge:    0.8373    magn:    0.0229    constr:    0.0000
     atom:    2    charge:    0.8398    magn:    0.0229    constr:    0.0000
     atom:    3    charge:    0.8416    magn:   -0.0026    constr:    0.0000
     atom:    4    charge:    0.8384    magn:    0.0084    constr:    0.0000
     atom:    5    charge:    0.8410    magn:    0.0084    constr:    0.0000
     atom:    6    charge:    0.8416    magn:   -0.0026    constr:    0.0000
     atom:    7    charge:    0.4934    magn:   -0.0007    constr:    0.0000
     atom:    8    charge:    0.4925    magn:   -0.0007    constr:    0.0000
     atom:    9    charge:    0.4929    magn:    0.0000    constr:    0.0000
     atom:   10    charge:    0.4943    magn:   -0.0004    constr:    0.0000
     atom:   11    charge:    0.4933    magn:   -0.0005    constr:    0.0000
     atom:   12    charge:    0.4929    magn:    0.0000    constr:    0.0000
     atom:   13    charge:    6.2668    magn:    0.6567    constr:    0.0000

     total cpu time spent up to now is       59.2 secs

     End of self-consistent calculation

 ------ SPIN UP ------------


          k = 0.0000 0.0000 0.0000 ( 57657 PWs)   bands (ev):

   -21.8354 -19.3014 -19.0456 -18.9586 -15.4090 -15.4060 -13.4578 -11.7442
   -11.5365 -10.8533 -10.7569  -9.8498  -8.8294  -8.8265  -8.0214  -7.1429
    -6.8858  -6.7940  -6.5966  -1.9308  -1.7854  -0.6178   0.2910   0.3161
     0.5600   0.6020   0.6622   0.9360   1.2162   1.5311   1.5368   1.7299
     1.7555   1.8395   1.8648   1.9323   2.0178   2.0428   2.1753   2.2303

     occupation numbers 
     1.0000   1.0000   1.0000   1.0000   1.0000   1.0000   1.0000   1.0000
     1.0000   1.0000   1.0000   1.0000   1.0000   1.0000   1.0000   1.0000
     1.0000   1.0000   1.0000   0.0000   0.0000   0.0000   0.0000   0.0000
     0.0000   0.0000   0.0000   0.0000   0.0000   0.0000   0.0000   0.0000
     0.0000   0.0000   0.0000   0.0000   0.0000   0.0000   0.0000   0.0000

 ------ SPIN DOWN ----------


          k = 0.0000 0.0000 0.0000 ( 57657 PWs)   bands (ev):

   -21.7659 -19.0155 -18.9338 -18.3829 -15.3690 -15.3518 -13.4417 -11.7157
   -11.5066 -10.8232 -10.7516  -9.6253  -8.8135  -8.8076  -7.1131  -7.0047
    -6.5707  -6.4185  -5.8948  -1.6987  -1.6907  -0.6071   0.3025   0.3188
     0.5830   0.6075   0.7056   0.9428   1.2280   1.5463   1.5570   1.7371
     1.7576   1.8660   1.8913   2.0325   2.0396   2.0704   2.1803   2.2564

     occupation numbers 
     1.0000   1.0000   1.0000   1.0000   1.0000   1.0000   1.0000   1.0000
     1.0000   1.0000   1.0000   1.0000   1.0000   1.0000   1.0000   1.0000
     1.0000   1.0000   0.0000   0.0000   0.0000   0.0000   0.0000   0.0000
     0.0000   0.0000   0.0000   0.0000   0.0000   0.0000   0.0000   0.0000
     0.0000   0.0000   0.0000   0.0000   0.0000   0.0000   0.0000   0.0000

     highest occupied, lowest unoccupied level (ev):    -6.4185   -5.8948

     The total energy is the sum of the following terms:

     one-electron contribution =    -692.76812557 Ry
     hartree contribution      =     349.71523881 Ry
     xc contribution           =     -30.79746536 Ry
     ewald contribution        =     268.46058250 Ry

!    total energy              =    -105.38976962 Ry
     Harris-Foulkes estimate   =    -105.38977198 Ry
     estimated scf accuracy    <       0.00001297 Ry

     The total energy is the sum of the following terms:

     one-electron contribution =    -692.76812557 Ry
     hartree contribution      =     349.71523881 Ry
     xc contribution           =     -30.79746536 Ry
     ewald contribution        =     268.46058250 Ry

     total magnetization       =     1.00 Bohr mag/cell
     absolute magnetization    =     1.12 Bohr mag/cell

     convergence has been achieved in   8 iterations
 
     Using Hirshfeld
        Amplitude [Ry a.u.] :  1.0000E-04
        Acceptor Fragment start :          13
        Acceptor Fragment end   :          13
        Donor Fragment start :           1
        Donor Fragment end   :          12
 
 
     Using Hirshfeld
        Amplitude [Ry a.u.] :  1.0000E-04
        Acceptor Fragment start :          13
        Acceptor Fragment end   :          13
        Donor Fragment start :           1
        Donor Fragment end   :          12
 
     E field correction              : -0.2262706657955120E-02 Ry    
 
     Donor charge                    :      0.3364658075627389 e     
     Acceptor charge                 :     -0.0364676128860353 e     
     Difference of charges           :      0.3729334204487706 e     
 
     epcdft_thr                      :  0.1000000000000000E-01 e     
     Surplus(+)/deficit(-) charge    : -0.6270665795512294E+00 e     
 
     -----------------------------------------------
 
                      SCF converged but...
 
     electron localization condition NOT satisfied
     restarting scf with different applied potential
 
     New field Amp                   :  0.1100000000000000E-02 Ry    
     charge density from previous step
 
     Using Hirshfeld
        Amplitude [Ry a.u.] :  1.1000E-03
        Acceptor Fragment start :          13
        Acceptor Fragment end   :          13
        Donor Fragment start :           1
        Donor Fragment end   :          12
 

     total cpu time spent up to now is       63.0 secs

     per-process dynamical memory:    52.2 Mb

     Self-consistent Calculation

     iteration #  1     ecut=    70.00 Ry     beta=0.70
     Davidson diagonalization with overlap
     ethr =  5.73E-07,  avg # of iterations =  4.0

     Threshold (ethr) on eigenvalues was too large:
     Diagonalizing with lowered threshold

     Davidson diagonalization with overlap
     ethr =  5.38E-08,  avg # of iterations =  8.5
 
     Magnetic moment per site:
     atom:    1    charge:    0.8375    magn:    0.0230    constr:    0.0000
     atom:    2    charge:    0.8399    magn:    0.0230    constr:    0.0000
     atom:    3    charge:    0.8428    magn:   -0.0027    constr:    0.0000
     atom:    4    charge:    0.8384    magn:    0.0082    constr:    0.0000
     atom:    5    charge:    0.8407    magn:    0.0082    constr:    0.0000
     atom:    6    charge:    0.8428    magn:   -0.0027    constr:    0.0000
     atom:    7    charge:    0.4932    magn:   -0.0007    constr:    0.0000
     atom:    8    charge:    0.4923    magn:   -0.0007    constr:    0.0000
     atom:    9    charge:    0.4927    magn:    0.0000    constr:    0.0000
     atom:   10    charge:    0.4941    magn:   -0.0004    constr:    0.0000
     atom:   11    charge:    0.4932    magn:   -0.0004    constr:    0.0000
     atom:   12    charge:    0.4927    magn:    0.0000    constr:    0.0000
     atom:   13    charge:    6.2642    magn:    0.6587    constr:    0.0000

     total cpu time spent up to now is       68.9 secs

     End of self-consistent calculation

 ------ SPIN UP ------------


          k = 0.0000 0.0000 0.0000 ( 57657 PWs)   bands (ev):

   -21.8479 -19.3020 -19.0483 -18.9752 -15.4163 -15.4131 -13.4624 -11.7443
   -11.5482 -10.8534 -10.7686  -9.8584  -8.8351  -8.8322  -8.0242  -7.1501
    -6.8874  -6.7956  -6.6026  -1.9339  -1.7955  -0.6101   0.3008   0.3233
     0.5661   0.6118   0.6623   0.9449   1.2151   1.5376   1.5430   1.7369
     1.7598   1.8393   1.8634   1.9290   2.0165   2.0476   2.1713   2.2274

     occupation numbers 
     1.0000   1.0000   1.0000   1.0000   1.0000   1.0000   1.0000   1.0000
     1.0000   1.0000   1.0000   1.0000   1.0000   1.0000   1.0000   1.0000
     1.0000   1.0000   1.0000   0.0000   0.0000   0.0000   0.0000   0.0000
     0.0000   0.0000   0.0000   0.0000   0.0000   0.0000   0.0000   0.0000
     0.0000   0.0000   0.0000   0.0000   0.0000   0.0000   0.0000   0.0000

 ------ SPIN DOWN ----------


          k = 0.0000 0.0000 0.0000 ( 57657 PWs)   bands (ev):

   -21.7780 -19.0179 -18.9505 -18.3800 -15.3760 -15.3586 -13.4462 -11.7156
   -11.5181 -10.8228 -10.7632  -9.6332  -8.8190  -8.8131  -7.1125  -7.0156
    -6.5743  -6.4255  -5.8883  -1.7092  -1.6916  -0.5995   0.3118   0.3260
     0.5889   0.6170   0.7051   0.9516   1.2268   1.5518   1.5632   1.7436
     1.7620   1.8657   1.8899   2.0328   2.0383   2.0709   2.1767   2.2526

     occupation numbers 
     1.0000   1.0000   1.0000   1.0000   1.0000   1.0000   1.0000   1.0000
     1.0000   1.0000   1.0000   1.0000   1.0000   1.0000   1.0000   1.0000
     1.0000   1.0000   0.0000   0.0000   0.0000   0.0000   0.0000   0.0000
     0.0000   0.0000   0.0000   0.0000   0.0000   0.0000   0.0000   0.0000
     0.0000   0.0000   0.0000   0.0000   0.0000   0.0000   0.0000   0.0000

     highest occupied, lowest unoccupied level (ev):    -6.4255   -5.8883

     The total energy is the sum of the following terms:

     one-electron contribution =    -692.78982086 Ry
     hartree contribution      =     349.76316954 Ry
     xc contribution           =     -30.80107203 Ry
     ewald contribution        =     268.46058250 Ry

!    total energy              =    -105.36714084 Ry
     Harris-Foulkes estimate   =    -105.36715869 Ry
     estimated scf accuracy    <       0.00002208 Ry

     The total energy is the sum of the following terms:

     one-electron contribution =    -692.78982086 Ry
     hartree contribution      =     349.76316954 Ry
     xc contribution           =     -30.80107203 Ry
     ewald contribution        =     268.46058250 Ry

     total magnetization       =     1.00 Bohr mag/cell
     absolute magnetization    =     1.12 Bohr mag/cell

     convergence has been achieved in   1 iterations
 
     Using Hirshfeld
        Amplitude [Ry a.u.] :  1.1000E-03
        Acceptor Fragment start :          13
        Acceptor Fragment end   :          13
        Donor Fragment start :           1
        Donor Fragment end   :          12
 
 
     Using Hirshfeld
        Amplitude [Ry a.u.] :  1.1000E-03
        Acceptor Fragment start :          13
        Acceptor Fragment end   :          13
        Donor Fragment start :           1
        Donor Fragment end   :          12
 
     E field correction              : -0.2489474181101218E-01 Ry    
 
     Donor charge                    :      0.3341632476652201 e     
     Acceptor charge                 :     -0.0342532877782418 e     
     Difference of charges           :      0.3684165354434583 e     
 
     epcdft_thr                      :  0.1000000000000000E-01 e     
     Surplus(+)/deficit(-) charge    : -0.6315834645565417E+00 e     
 
     -----------------------------------------------
 
                      SCF converged but...
 
     electron localization condition NOT satisfied
     restarting scf with different applied potential
 
     New field Amp                   : -0.3900000000000000E-02 Ry    
     charge density from previous step
 
     Using Hirshfeld
        Amplitude [Ry a.u.] : -3.9000E-03
        Acceptor Fragment start :          13
        Acceptor Fragment end   :          13
        Donor Fragment start :           1
        Donor Fragment end   :          12
 

     total cpu time spent up to now is       72.3 secs

     per-process dynamical memory:    52.2 Mb

     Self-consistent Calculation

     iteration #  1     ecut=    70.00 Ry     beta=0.70
     Davidson diagonalization with overlap
     WARNING:     2 eigenvalues not converged
     c_bands:  2 eigenvalues not converged
     WARNING:     1 eigenvalues not converged
     c_bands:  1 eigenvalues not converged
     ethr =  5.38E-08,  avg # of iterations = 20.0
 
     Magnetic moment per site:
     atom:    1    charge:    0.8381    magn:    0.0221    constr:    0.0000
     atom:    2    charge:    0.8408    magn:    0.0222    constr:    0.0000
     atom:    3    charge:    0.8414    magn:   -0.0027    constr:    0.0000
     atom:    4    charge:    0.8392    magn:    0.0075    constr:    0.0000
     atom:    5    charge:    0.8419    magn:    0.0075    constr:    0.0000
     atom:    6    charge:    0.8414    magn:   -0.0027    constr:    0.0000
     atom:    7    charge:    0.4935    magn:   -0.0008    constr:    0.0000
     atom:    8    charge:    0.4926    magn:   -0.0008    constr:    0.0000
     atom:    9    charge:    0.4930    magn:    0.0000    constr:    0.0000
     atom:   10    charge:    0.4944    magn:   -0.0004    constr:    0.0000
     atom:   11    charge:    0.4934    magn:   -0.0004    constr:    0.0000
     atom:   12    charge:    0.4930    magn:    0.0000    constr:    0.0000
     atom:   13    charge:    6.2493    magn:    0.6734    constr:    0.0000

     total cpu time spent up to now is       81.0 secs

     The total energy is the sum of the following terms:

     one-electron contribution =    -692.92896321 Ry
     hartree contribution      =     349.77882915 Ry
     xc contribution           =     -30.79848833 Ry
     ewald contribution        =     268.46058250 Ry

     total energy              =    -105.48016243 Ry
     Harris-Foulkes estimate   =    -105.48041799 Ry
     estimated scf accuracy    <       0.00038025 Ry

     total magnetization       =     1.00 Bohr mag/cell
     absolute magnetization    =     1.12 Bohr mag/cell

     iteration #  2     ecut=    70.00 Ry     beta=0.70
     Davidson diagonalization with overlap
     ethr =  1.03E-06,  avg # of iterations =  6.0
 
     Magnetic moment per site:
     atom:    1    charge:    0.8374    magn:    0.0226    constr:    0.0000
     atom:    2    charge:    0.8399    magn:    0.0226    constr:    0.0000
     atom:    3    charge:    0.8418    magn:   -0.0027    constr:    0.0000
     atom:    4    charge:    0.8384    magn:    0.0078    constr:    0.0000
     atom:    5    charge:    0.8410    magn:    0.0078    constr:    0.0000
     atom:    6    charge:    0.8418    magn:   -0.0027    constr:    0.0000
     atom:    7    charge:    0.4935    magn:   -0.0007    constr:    0.0000
     atom:    8    charge:    0.4926    magn:   -0.0007    constr:    0.0000
     atom:    9    charge:    0.4930    magn:    0.0000    constr:    0.0000
     atom:   10    charge:    0.4944    magn:   -0.0004    constr:    0.0000
     atom:   11    charge:    0.4934    magn:   -0.0004    constr:    0.0000
     atom:   12    charge:    0.4930    magn:    0.0000    constr:    0.0000
     atom:   13    charge:    6.2597    magn:    0.6658    constr:    0.0000

     total cpu time spent up to now is       84.5 secs

     The total energy is the sum of the following terms:

     one-electron contribution =    -692.74765811 Ry
     hartree contribution      =     349.74171591 Ry
     xc contribution           =     -30.79855936 Ry
     ewald contribution        =     268.46058250 Ry

     total energy              =    -105.48005739 Ry
     Harris-Foulkes estimate   =    -105.48065391 Ry
     estimated scf accuracy    <       0.00188093 Ry

     total magnetization       =     1.00 Bohr mag/cell
     absolute magnetization    =     1.12 Bohr mag/cell

     iteration #  3     ecut=    70.00 Ry     beta=0.70
     Davidson diagonalization with overlap
     ethr =  1.03E-06,  avg # of iterations =  4.0
 
     Magnetic moment per site:
     atom:    1    charge:    0.8377    magn:    0.0222    constr:    0.0000
     atom:    2    charge:    0.8401    magn:    0.0222    constr:    0.0000
     atom:    3    charge:    0.8424    magn:   -0.0026    constr:    0.0000
     atom:    4    charge:    0.8384    magn:    0.0075    constr:    0.0000
     atom:    5    charge:    0.8408    magn:    0.0076    constr:    0.0000
     atom:    6    charge:    0.8425    magn:   -0.0026    constr:    0.0000
     atom:    7    charge:    0.4934    magn:   -0.0007    constr:    0.0000
     atom:    8    charge:    0.4925    magn:   -0.0007    constr:    0.0000
     atom:    9    charge:    0.4929    magn:    0.0000    constr:    0.0000
     atom:   10    charge:    0.4942    magn:   -0.0004    constr:    0.0000
     atom:   11    charge:    0.4933    magn:   -0.0004    constr:    0.0000
     atom:   12    charge:    0.4930    magn:    0.0000    constr:    0.0000
     atom:   13    charge:    6.2555    magn:    0.6710    constr:    0.0000

     total cpu time spent up to now is       87.1 secs

     End of self-consistent calculation

 ------ SPIN UP ------------


          k = 0.0000 0.0000 0.0000 ( 57657 PWs)   bands (ev):

   -21.8821 -19.3242 -19.0790 -19.0109 -15.4531 -15.4497 -13.5017 -11.7850
   -11.5828 -10.8920 -10.8074  -9.8925  -8.8735  -8.8705  -8.0513  -7.1730
    -6.9095  -6.8102  -6.6213  -1.9694  -1.8329  -0.6603   0.2491   0.2703
     0.5220   0.5580   0.6457   0.8916   1.1839   1.4947   1.5006   1.6860
     1.7145   1.8231   1.8355   1.9021   1.9786   2.0089   2.1430   2.2000

     occupation numbers 
     1.0000   1.0000   1.0000   1.0000   1.0000   1.0000   1.0000   1.0000
     1.0000   1.0000   1.0000   1.0000   1.0000   1.0000   1.0000   1.0000
     1.0000   1.0000   1.0000   0.0000   0.0000   0.0000   0.0000   0.0000
     0.0000   0.0000   0.0000   0.0000   0.0000   0.0000   0.0000   0.0000
     0.0000   0.0000   0.0000   0.0000   0.0000   0.0000   0.0000   0.0000

 ------ SPIN DOWN ----------


          k = 0.0000 0.0000 0.0000 ( 57657 PWs)   bands (ev):

   -21.8146 -19.0554 -18.9874 -18.3839 -15.4144 -15.3973 -13.4862 -11.7574
   -11.5539 -10.8626 -10.8024  -9.6727  -8.8580  -8.8523  -7.1434  -7.0442
    -6.5760  -6.4375  -5.8931  -1.7503  -1.7350  -0.6502   0.2596   0.2731
     0.5433   0.5630   0.6882   0.8980   1.1950   1.5075   1.5212   1.6929
     1.7158   1.8492   1.8705   1.9965   2.0011   2.0262   2.1483   2.2255

     occupation numbers 
     1.0000   1.0000   1.0000   1.0000   1.0000   1.0000   1.0000   1.0000
     1.0000   1.0000   1.0000   1.0000   1.0000   1.0000   1.0000   1.0000
     1.0000   1.0000   0.0000   0.0000   0.0000   0.0000   0.0000   0.0000
     0.0000   0.0000   0.0000   0.0000   0.0000   0.0000   0.0000   0.0000
     0.0000   0.0000   0.0000   0.0000   0.0000   0.0000   0.0000   0.0000

     highest occupied, lowest unoccupied level (ev):    -6.4375   -5.8931

     The total energy is the sum of the following terms:

     one-electron contribution =    -692.92051406 Ry
     hartree contribution      =     349.78010781 Ry
     xc contribution           =     -30.80051428 Ry
     ewald contribution        =     268.46058250 Ry

!    total energy              =    -105.48033802 Ry
     Harris-Foulkes estimate   =    -105.48035228 Ry
     estimated scf accuracy    <       0.00002063 Ry

     The total energy is the sum of the following terms:

     one-electron contribution =    -692.92051406 Ry
     hartree contribution      =     349.78010781 Ry
     xc contribution           =     -30.80051428 Ry
     ewald contribution        =     268.46058250 Ry

     total magnetization       =     1.00 Bohr mag/cell
     absolute magnetization    =     1.12 Bohr mag/cell

     convergence has been achieved in   3 iterations
 
     Using Hirshfeld
        Amplitude [Ry a.u.] : -3.9000E-03
        Acceptor Fragment start :          13
        Acceptor Fragment end   :          13
        Donor Fragment start :           1
        Donor Fragment end   :          12
 
 
     Using Hirshfeld
        Amplitude [Ry a.u.] : -3.9000E-03
        Acceptor Fragment start :          13
        Acceptor Fragment end   :          13
        Donor Fragment start :           1
        Donor Fragment end   :          12
 
     E field correction              :  0.8836794525698070E-01 Ry    
 
     Donor charge                    :      0.3203212643167213 e     
     Acceptor charge                 :     -0.0212312338933591 e     
     Difference of charges           :      0.3415524982100919 e     
 
     epcdft_thr                      :  0.1000000000000000E-01 e     
     Surplus(+)/deficit(-) charge    : -0.6584475017899081E+00 e     
 
     -----------------------------------------------
 
                      SCF converged but...
 
     electron localization condition NOT satisfied
     restarting scf with different applied potential
 
     New field Amp                   :  0.1100000000000000E-02 Ry    
     charge density from previous step
 
     Using Hirshfeld
        Amplitude [Ry a.u.] :  1.1000E-03
        Acceptor Fragment start :          13
        Acceptor Fragment end   :          13
        Donor Fragment start :           1
        Donor Fragment end   :          12
 

     total cpu time spent up to now is       91.0 secs

     per-process dynamical memory:    52.2 Mb

     Self-consistent Calculation

     iteration #  1     ecut=    70.00 Ry     beta=0.70
     Davidson diagonalization with overlap
     ethr =  1.03E-06,  avg # of iterations =  8.5
 
     Magnetic moment per site:
     atom:    1    charge:    0.8353    magn:    0.0242    constr:    0.0000
     atom:    2    charge:    0.8378    magn:    0.0242    constr:    0.0000
     atom:    3    charge:    0.8418    magn:   -0.0026    constr:    0.0000
     atom:    4    charge:    0.8371    magn:    0.0088    constr:    0.0000
     atom:    5    charge:    0.8398    magn:    0.0088    constr:    0.0000
     atom:    6    charge:    0.8418    magn:   -0.0025    constr:    0.0000
     atom:    7    charge:    0.4935    magn:   -0.0007    constr:    0.0000
     atom:    8    charge:    0.4925    magn:   -0.0007    constr:    0.0000
     atom:    9    charge:    0.4930    magn:    0.0000    constr:    0.0000
     atom:   10    charge:    0.4943    magn:   -0.0003    constr:    0.0000
     atom:   11    charge:    0.4934    magn:   -0.0003    constr:    0.0000
     atom:   12    charge:    0.4930    magn:    0.0000    constr:    0.0000
     atom:   13    charge:    6.2911    magn:    0.6397    constr:    0.0000

     total cpu time spent up to now is       95.3 secs

     The total energy is the sum of the following terms:

     one-electron contribution =    -692.58741003 Ry
     hartree contribution      =     349.62430865 Ry
     xc contribution           =     -30.79812493 Ry
     ewald contribution        =     268.46058250 Ry

     total energy              =    -105.36607496 Ry
     Harris-Foulkes estimate   =    -105.36744192 Ry
     estimated scf accuracy    <       0.00190684 Ry

     total magnetization       =     1.00 Bohr mag/cell
     absolute magnetization    =     1.12 Bohr mag/cell

     iteration #  2     ecut=    70.00 Ry     beta=0.70
     Davidson diagonalization with overlap
     ethr =  5.15E-06,  avg # of iterations =  6.5
 
     Magnetic moment per site:
     atom:    1    charge:    0.8374    magn:    0.0231    constr:    0.0000
     atom:    2    charge:    0.8399    magn:    0.0232    constr:    0.0000
     atom:    3    charge:    0.8419    magn:   -0.0026    constr:    0.0000
     atom:    4    charge:    0.8385    magn:    0.0081    constr:    0.0000
     atom:    5    charge:    0.8410    magn:    0.0081    constr:    0.0000
     atom:    6    charge:    0.8419    magn:   -0.0026    constr:    0.0000
     atom:    7    charge:    0.4933    magn:   -0.0007    constr:    0.0000
     atom:    8    charge:    0.4923    magn:   -0.0007    constr:    0.0000
     atom:    9    charge:    0.4928    magn:    0.0000    constr:    0.0000
     atom:   10    charge:    0.4942    magn:   -0.0004    constr:    0.0000
     atom:   11    charge:    0.4932    magn:   -0.0004    constr:    0.0000
     atom:   12    charge:    0.4928    magn:    0.0000    constr:    0.0000
     atom:   13    charge:    6.2673    magn:    0.6568    constr:    0.0000

     total cpu time spent up to now is       98.9 secs

     The total energy is the sum of the following terms:

     one-electron contribution =    -693.16821594 Ry
     hartree contribution      =     349.73701391 Ry
     xc contribution           =     -30.79980329 Ry
     ewald contribution        =     268.46058250 Ry

     total energy              =    -105.36591208 Ry
     Harris-Foulkes estimate   =    -105.36896422 Ry
     estimated scf accuracy    <       0.00948739 Ry

     total magnetization       =     1.00 Bohr mag/cell
     absolute magnetization    =     1.12 Bohr mag/cell

     iteration #  3     ecut=    70.00 Ry     beta=0.70
     Davidson diagonalization with overlap
     ethr =  5.15E-06,  avg # of iterations =  4.0
 
     Magnetic moment per site:
     atom:    1    charge:    0.8379    magn:    0.0231    constr:    0.0000
     atom:    2    charge:    0.8403    magn:    0.0232    constr:    0.0000
     atom:    3    charge:    0.8425    magn:   -0.0027    constr:    0.0000
     atom:    4    charge:    0.8388    magn:    0.0081    constr:    0.0000
     atom:    5    charge:    0.8412    magn:    0.0081    constr:    0.0000
     atom:    6    charge:    0.8425    magn:   -0.0027    constr:    0.0000
     atom:    7    charge:    0.4932    magn:   -0.0007    constr:    0.0000
     atom:    8    charge:    0.4922    magn:   -0.0007    constr:    0.0000
     atom:    9    charge:    0.4926    magn:    0.0000    constr:    0.0000
     atom:   10    charge:    0.4941    magn:   -0.0004    constr:    0.0000
     atom:   11    charge:    0.4932    magn:   -0.0004    constr:    0.0000
     atom:   12    charge:    0.4927    magn:    0.0000    constr:    0.0000
     atom:   13    charge:    6.2627    magn:    0.6590    constr:    0.0000

     total cpu time spent up to now is      101.4 secs

     End of self-consistent calculation

 ------ SPIN UP ------------


          k = 0.0000 0.0000 0.0000 ( 57657 PWs)   bands (ev):

   -21.8360 -19.2953 -19.0404 -18.9641 -15.4087 -15.4054 -13.4557 -11.7408
   -11.5379 -10.8472 -10.7599  -9.8493  -8.8283  -8.8252  -8.0188  -7.1417
    -6.8797  -6.7892  -6.5944  -1.9269  -1.7869  -0.6090   0.3013   0.3245
     0.5672   0.6126   0.6638   0.9457   1.2150   1.5386   1.5441   1.7376
     1.7604   1.8402   1.8660   1.9339   2.0172   2.0484   2.1716   2.2274

     occupation numbers 
     1.0000   1.0000   1.0000   1.0000   1.0000   1.0000   1.0000   1.0000
     1.0000   1.0000   1.0000   1.0000   1.0000   1.0000   1.0000   1.0000
     1.0000   1.0000   1.0000   0.0000   0.0000   0.0000   0.0000   0.0000
     0.0000   0.0000   0.0000   0.0000   0.0000   0.0000   0.0000   0.0000
     0.0000   0.0000   0.0000   0.0000   0.0000   0.0000   0.0000   0.0000

 ------ SPIN DOWN ----------


          k = 0.0000 0.0000 0.0000 ( 57657 PWs)   bands (ev):

   -21.7660 -19.0097 -18.9393 -18.3729 -15.3684 -15.3509 -13.4394 -11.7122
   -11.5077 -10.8165 -10.7544  -9.6239  -8.8119  -8.8061  -7.1052  -7.0071
    -6.5695  -6.4191  -5.8786  -1.7007  -1.6850  -0.5982   0.3126   0.3273
     0.5902   0.6179   0.7065   0.9525   1.2270   1.5531   1.5640   1.7446
     1.7627   1.8665   1.8912   2.0345   2.0401   2.0749   2.1772   2.2527

     occupation numbers 
     1.0000   1.0000   1.0000   1.0000   1.0000   1.0000   1.0000   1.0000
     1.0000   1.0000   1.0000   1.0000   1.0000   1.0000   1.0000   1.0000
     1.0000   1.0000   0.0000   0.0000   0.0000   0.0000   0.0000   0.0000
     0.0000   0.0000   0.0000   0.0000   0.0000   0.0000   0.0000   0.0000
     0.0000   0.0000   0.0000   0.0000   0.0000   0.0000   0.0000   0.0000

     highest occupied, lowest unoccupied level (ev):    -6.4191   -5.8786

     The total energy is the sum of the following terms:

     one-electron contribution =    -692.79260921 Ry
     hartree contribution      =     349.76563809 Ry
     xc contribution           =     -30.80073253 Ry
     ewald contribution        =     268.46058250 Ry

!    total energy              =    -105.36712115 Ry
     Harris-Foulkes estimate   =    -105.36713576 Ry
     estimated scf accuracy    <       0.00001706 Ry

     The total energy is the sum of the following terms:

     one-electron contribution =    -692.79260921 Ry
     hartree contribution      =     349.76563809 Ry
     xc contribution           =     -30.80073253 Ry
     ewald contribution        =     268.46058250 Ry

     total magnetization       =     1.00 Bohr mag/cell
     absolute magnetization    =     1.12 Bohr mag/cell

     convergence has been achieved in   3 iterations
 
     Using Hirshfeld
        Amplitude [Ry a.u.] :  1.1000E-03
        Acceptor Fragment start :          13
        Acceptor Fragment end   :          13
        Donor Fragment start :           1
        Donor Fragment end   :          12
 
 
     Using Hirshfeld
        Amplitude [Ry a.u.] :  1.1000E-03
        Acceptor Fragment start :          13
        Acceptor Fragment end   :          13
        Donor Fragment start :           1
        Donor Fragment end   :          12
 
     E field correction              : -0.2489684606964181E-01 Ry    
 
     Donor charge                    :      0.3333229111469187 e     
     Acceptor charge                 :     -0.0331806619060115 e     
     Difference of charges           :      0.3665035730529311 e     
 
     epcdft_thr                      :  0.1000000000000000E-01 e     
     Surplus(+)/deficit(-) charge    : -0.6334964269470689E+00 e     
 
     -----------------------------------------------
 
                      SCF converged but...
 
     electron localization condition NOT satisfied
     restarting scf with different applied potential
 
     New field Amp                   :  0.6100000000000000E-02 Ry    
     charge density from previous step
 
     Using Hirshfeld
        Amplitude [Ry a.u.] :  6.1000E-03
        Acceptor Fragment start :          13
        Acceptor Fragment end   :          13
        Donor Fragment start :           1
        Donor Fragment end   :          12
 

     total cpu time spent up to now is      105.1 secs

     per-process dynamical memory:    52.2 Mb

     Self-consistent Calculation

     iteration #  1     ecut=    70.00 Ry     beta=0.70
     Davidson diagonalization with overlap
     ethr =  5.15E-06,  avg # of iterations =  6.0
 
     Magnetic moment per site:
     atom:    1    charge:    0.8352    magn:    0.0253    constr:    0.0000
     atom:    2    charge:    0.8378    magn:    0.0253    constr:    0.0000
     atom:    3    charge:    0.8419    magn:   -0.0027    constr:    0.0000
     atom:    4    charge:    0.8370    magn:    0.0095    constr:    0.0000
     atom:    5    charge:    0.8396    magn:    0.0095    constr:    0.0000
     atom:    6    charge:    0.8419    magn:   -0.0027    constr:    0.0000
     atom:    7    charge:    0.4933    magn:   -0.0007    constr:    0.0000
     atom:    8    charge:    0.4923    magn:   -0.0007    constr:    0.0000
     atom:    9    charge:    0.4929    magn:    0.0000    constr:    0.0000
     atom:   10    charge:    0.4942    magn:   -0.0003    constr:    0.0000
     atom:   11    charge:    0.4932    magn:   -0.0003    constr:    0.0000
     atom:   12    charge:    0.4929    magn:    0.0000    constr:    0.0000
     atom:   13    charge:    6.3025    magn:    0.6246    constr:    0.0000

     total cpu time spent up to now is      109.0 secs

     The total energy is the sum of the following terms:

     one-electron contribution =    -692.42892811 Ry
     hartree contribution      =     349.58798084 Ry
     xc contribution           =     -30.79784891 Ry
     ewald contribution        =     268.46058250 Ry

     total energy              =    -105.25272386 Ry
     Harris-Foulkes estimate   =    -105.25442336 Ry
     estimated scf accuracy    <       0.00236092 Ry

     total magnetization       =     1.00 Bohr mag/cell
     absolute magnetization    =     1.12 Bohr mag/cell

     iteration #  2     ecut=    70.00 Ry     beta=0.70
     Davidson diagonalization with overlap
     ethr =  6.38E-06,  avg # of iterations =  6.5
 
     Magnetic moment per site:
     atom:    1    charge:    0.8374    magn:    0.0241    constr:    0.0000
     atom:    2    charge:    0.8399    magn:    0.0241    constr:    0.0000
     atom:    3    charge:    0.8419    magn:   -0.0028    constr:    0.0000
     atom:    4    charge:    0.8385    magn:    0.0087    constr:    0.0000
     atom:    5    charge:    0.8411    magn:    0.0087    constr:    0.0000
     atom:    6    charge:    0.8419    magn:   -0.0028    constr:    0.0000
     atom:    7    charge:    0.4931    magn:   -0.0008    constr:    0.0000
     atom:    8    charge:    0.4922    magn:   -0.0008    constr:    0.0000
     atom:    9    charge:    0.4927    magn:    0.0000    constr:    0.0000
     atom:   10    charge:    0.4941    magn:   -0.0004    constr:    0.0000
     atom:   11    charge:    0.4931    magn:   -0.0004    constr:    0.0000
     atom:   12    charge:    0.4927    magn:    0.0000    constr:    0.0000
     atom:   13    charge:    6.2754    magn:    0.6443    constr:    0.0000

     total cpu time spent up to now is      112.7 secs

     The total energy is the sum of the following terms:

     one-electron contribution =    -693.06323382 Ry
     hartree contribution      =     349.70776907 Ry
     xc contribution           =     -30.79907457 Ry
     ewald contribution        =     268.46058250 Ry

     total energy              =    -105.25251575 Ry
     Harris-Foulkes estimate   =    -105.25642084 Ry
     estimated scf accuracy    <       0.01235718 Ry

     total magnetization       =     1.00 Bohr mag/cell
     absolute magnetization    =     1.13 Bohr mag/cell

     iteration #  3     ecut=    70.00 Ry     beta=0.70
     Davidson diagonalization with overlap
     ethr =  6.38E-06,  avg # of iterations =  4.0
 
     Magnetic moment per site:
     atom:    1    charge:    0.8377    magn:    0.0240    constr:    0.0000
     atom:    2    charge:    0.8402    magn:    0.0241    constr:    0.0000
     atom:    3    charge:    0.8424    magn:   -0.0029    constr:    0.0000
     atom:    4    charge:    0.8389    magn:    0.0086    constr:    0.0000
     atom:    5    charge:    0.8413    magn:    0.0086    constr:    0.0000
     atom:    6    charge:    0.8424    magn:   -0.0029    constr:    0.0000
     atom:    7    charge:    0.4931    magn:   -0.0008    constr:    0.0000
     atom:    8    charge:    0.4921    magn:   -0.0008    constr:    0.0000
     atom:    9    charge:    0.4925    magn:    0.0000    constr:    0.0000
     atom:   10    charge:    0.4941    magn:   -0.0004    constr:    0.0000
     atom:   11    charge:    0.4931    magn:   -0.0004    constr:    0.0000
     atom:   12    charge:    0.4925    magn:    0.0000    constr:    0.0000
     atom:   13    charge:    6.2695    magn:    0.6480    constr:    0.0000

     total cpu time spent up to now is      115.1 secs

     End of self-consistent calculation

 ------ SPIN UP ------------


          k = 0.0000 0.0000 0.0000 ( 57657 PWs)   bands (ev):

   -21.8066 -19.2641 -19.0124 -18.9298 -15.3765 -15.3730 -13.4208 -11.7049
   -11.5074 -10.8153 -10.7229  -9.8190  -8.7943  -8.7911  -7.9818  -7.1151
    -6.8558  -6.7689  -6.5692  -1.8994  -1.7519  -0.5612   0.3499   0.3759
     0.6067   0.6640   0.6844   0.9969   1.2436   1.5785   1.5844   1.7848
     1.8013   1.8596   1.8922   1.9613   2.0530   2.0842   2.2030   2.2541

     occupation numbers 
     1.0000   1.0000   1.0000   1.0000   1.0000   1.0000   1.0000   1.0000
     1.0000   1.0000   1.0000   1.0000   1.0000   1.0000   1.0000   1.0000
     1.0000   1.0000   1.0000   0.0000   0.0000   0.0000   0.0000   0.0000
     0.0000   0.0000   0.0000   0.0000   0.0000   0.0000   0.0000   0.0000
     0.0000   0.0000   0.0000   0.0000   0.0000   0.0000   0.0000   0.0000

 ------ SPIN DOWN ----------


          k = 0.0000 0.0000 0.0000 ( 57657 PWs)   bands (ev):

   -21.7333 -18.9778 -18.9040 -18.3599 -15.3341 -15.3157 -13.4037 -11.6746
   -11.4757 -10.7831 -10.7173  -9.5869  -8.7772  -8.7710  -7.0763  -6.9774
    -6.5581  -6.3995  -5.8685  -1.6617  -1.6443  -0.5500   0.3619   0.3784
     0.6321   0.6697   0.7259   1.0039   1.2562   1.5950   1.6040   1.7917
     1.8053   1.8854   1.9127   2.0675   2.0766   2.1177   2.2091   2.2792

     occupation numbers 
     1.0000   1.0000   1.0000   1.0000   1.0000   1.0000   1.0000   1.0000
     1.0000   1.0000   1.0000   1.0000   1.0000   1.0000   1.0000   1.0000
     1.0000   1.0000   0.0000   0.0000   0.0000   0.0000   0.0000   0.0000
     0.0000   0.0000   0.0000   0.0000   0.0000   0.0000   0.0000   0.0000
     0.0000   0.0000   0.0000   0.0000   0.0000   0.0000   0.0000   0.0000

     highest occupied, lowest unoccupied level (ev):    -6.3995   -5.8685

     The total energy is the sum of the following terms:

     one-electron contribution =    -692.65935055 Ry
     hartree contribution      =     349.74508481 Ry
     xc contribution           =     -30.80035424 Ry
     ewald contribution        =     268.46058250 Ry

!    total energy              =    -105.25403748 Ry
     Harris-Foulkes estimate   =    -105.25406054 Ry
     estimated scf accuracy    <       0.00002667 Ry

     The total energy is the sum of the following terms:

     one-electron contribution =    -692.65935055 Ry
     hartree contribution      =     349.74508481 Ry
     xc contribution           =     -30.80035424 Ry
     ewald contribution        =     268.46058250 Ry

     total magnetization       =     1.00 Bohr mag/cell
     absolute magnetization    =     1.12 Bohr mag/cell

     convergence has been achieved in   3 iterations
 
     Using Hirshfeld
        Amplitude [Ry a.u.] :  6.1000E-03
        Acceptor Fragment start :          13
        Acceptor Fragment end   :          13
        Donor Fragment start :           1
        Donor Fragment end   :          12
 
 
     Using Hirshfeld
        Amplitude [Ry a.u.] :  6.1000E-03
        Acceptor Fragment start :          13
        Acceptor Fragment end   :          13
        Donor Fragment start :           1
        Donor Fragment end   :          12
 
     E field correction              : -0.1379253180934057E+00 Ry    
 
     Donor charge                    :      0.3451081874851845 e     
     Acceptor charge                 :     -0.0441839283499394 e     
     Difference of charges           :      0.3892921158351292 e     
 
     epcdft_thr                      :  0.1000000000000000E-01 e     
     Surplus(+)/deficit(-) charge    : -0.6107078841648708E+00 e     
 
     -----------------------------------------------
 
                      SCF converged but...
 
     electron localization condition NOT satisfied
     restarting scf with different applied potential
 
     New field Amp                   :  0.1110000000000000E-01 Ry    
     charge density from previous step
 
     Using Hirshfeld
        Amplitude [Ry a.u.] :  1.1100E-02
        Acceptor Fragment start :          13
        Acceptor Fragment end   :          13
        Donor Fragment start :           1
        Donor Fragment end   :          12
 

     total cpu time spent up to now is      118.8 secs

     per-process dynamical memory:    52.2 Mb

     Self-consistent Calculation

     iteration #  1     ecut=    70.00 Ry     beta=0.70
     Davidson diagonalization with overlap
     ethr =  6.38E-06,  avg # of iterations =  6.0
 
     Magnetic moment per site:
     atom:    1    charge:    0.8348    magn:    0.0265    constr:    0.0000
     atom:    2    charge:    0.8374    magn:    0.0265    constr:    0.0000
     atom:    3    charge:    0.8420    magn:   -0.0030    constr:    0.0000
     atom:    4    charge:    0.8365    magn:    0.0103    constr:    0.0000
     atom:    5    charge:    0.8391    magn:    0.0103    constr:    0.0000
     atom:    6    charge:    0.8419    magn:   -0.0030    constr:    0.0000
     atom:    7    charge:    0.4932    magn:   -0.0007    constr:    0.0000
     atom:    8    charge:    0.4922    magn:   -0.0007    constr:    0.0000
     atom:    9    charge:    0.4928    magn:    0.0000    constr:    0.0000
     atom:   10    charge:    0.4942    magn:   -0.0004    constr:    0.0000
     atom:   11    charge:    0.4932    magn:   -0.0003    constr:    0.0000
     atom:   12    charge:    0.4928    magn:    0.0000    constr:    0.0000
     atom:   13    charge:    6.3156    magn:    0.6081    constr:    0.0000

     total cpu time spent up to now is      122.7 secs

     The total energy is the sum of the following terms:

     one-electron contribution =    -692.25509564 Ry
     hartree contribution      =     349.53898148 Ry
     xc contribution           =     -30.79726033 Ry
     ewald contribution        =     268.46058250 Ry

     total energy              =    -105.13925896 Ry
     Harris-Foulkes estimate   =    -105.14158223 Ry
     estimated scf accuracy    <       0.00321116 Ry

     total magnetization       =     1.00 Bohr mag/cell
     absolute magnetization    =     1.12 Bohr mag/cell

     iteration #  2     ecut=    70.00 Ry     beta=0.70
     Davidson diagonalization with overlap
     ethr =  8.68E-06,  avg # of iterations =  7.0
 
     Magnetic moment per site:
     atom:    1    charge:    0.8373    magn:    0.0251    constr:    0.0000
     atom:    2    charge:    0.8398    magn:    0.0251    constr:    0.0000
     atom:    3    charge:    0.8419    magn:   -0.0031    constr:    0.0000
     atom:    4    charge:    0.8385    magn:    0.0094    constr:    0.0000
     atom:    5    charge:    0.8410    magn:    0.0094    constr:    0.0000
     atom:    6    charge:    0.8419    magn:   -0.0030    constr:    0.0000
     atom:    7    charge:    0.4930    magn:   -0.0008    constr:    0.0000
     atom:    8    charge:    0.4920    magn:   -0.0008    constr:    0.0000
     atom:    9    charge:    0.4926    magn:    0.0000    constr:    0.0000
     atom:   10    charge:    0.4940    magn:   -0.0004    constr:    0.0000
     atom:   11    charge:    0.4931    magn:   -0.0004    constr:    0.0000
     atom:   12    charge:    0.4926    magn:    0.0000    constr:    0.0000
     atom:   13    charge:    6.2838    magn:    0.6315    constr:    0.0000

     total cpu time spent up to now is      126.6 secs

     The total energy is the sum of the following terms:

     one-electron contribution =    -693.00865241 Ry
     hartree contribution      =     349.67904635 Ry
     xc contribution           =     -30.79859338 Ry
     ewald contribution        =     268.46058250 Ry

     total energy              =    -105.13897323 Ry
     Harris-Foulkes estimate   =    -105.14448362 Ry
     estimated scf accuracy    <       0.01770185 Ry

     total magnetization       =     1.00 Bohr mag/cell
     absolute magnetization    =     1.13 Bohr mag/cell

     iteration #  3     ecut=    70.00 Ry     beta=0.70
     Davidson diagonalization with overlap
     ethr =  8.68E-06,  avg # of iterations =  4.0
 
     Magnetic moment per site:
     atom:    1    charge:    0.8377    magn:    0.0249    constr:    0.0000
     atom:    2    charge:    0.8401    magn:    0.0250    constr:    0.0000
     atom:    3    charge:    0.8424    magn:   -0.0032    constr:    0.0000
     atom:    4    charge:    0.8391    magn:    0.0092    constr:    0.0000
     atom:    5    charge:    0.8415    magn:    0.0091    constr:    0.0000
     atom:    6    charge:    0.8424    magn:   -0.0032    constr:    0.0000
     atom:    7    charge:    0.4929    magn:   -0.0008    constr:    0.0000
     atom:    8    charge:    0.4920    magn:   -0.0008    constr:    0.0000
     atom:    9    charge:    0.4924    magn:    0.0000    constr:    0.0000
     atom:   10    charge:    0.4940    magn:   -0.0004    constr:    0.0000
     atom:   11    charge:    0.4931    magn:   -0.0004    constr:    0.0000
     atom:   12    charge:    0.4924    magn:    0.0000    constr:    0.0000
     atom:   13    charge:    6.2753    magn:    0.6376    constr:    0.0000

     total cpu time spent up to now is      129.1 secs

     End of self-consistent calculation

 ------ SPIN UP ------------


          k = 0.0000 0.0000 0.0000 ( 57657 PWs)   bands (ev):

   -21.7785 -19.2296 -18.9841 -18.8965 -15.3453 -15.3414 -13.3866 -11.6694
   -11.4780 -10.7844 -10.6867  -9.7891  -8.7610  -8.7579  -7.9421  -7.0873
    -6.8302  -6.7466  -6.5420  -1.8732  -1.7174  -0.5134   0.3982   0.4274
     0.6396   0.7103   0.7167   1.0482   1.2727   1.6168   1.6226   1.8280
     1.8413   1.8828   1.9206   1.9894   2.0889   2.1178   2.2379   2.2825

     occupation numbers 
     1.0000   1.0000   1.0000   1.0000   1.0000   1.0000   1.0000   1.0000
     1.0000   1.0000   1.0000   1.0000   1.0000   1.0000   1.0000   1.0000
     1.0000   1.0000   1.0000   0.0000   0.0000   0.0000   0.0000   0.0000
     0.0000   0.0000   0.0000   0.0000   0.0000   0.0000   0.0000   0.0000
     0.0000   0.0000   0.0000   0.0000   0.0000   0.0000   0.0000   0.0000

 ------ SPIN DOWN ----------


          k = 0.0000 0.0000 0.0000 ( 57657 PWs)   bands (ev):

   -21.7015 -18.9467 -18.8698 -18.3428 -15.3007 -15.2812 -13.3687 -11.6376
   -11.4448 -10.7504 -10.6810  -9.5504  -8.7432  -8.7366  -7.0473  -6.9475
    -6.5430  -6.3772  -5.8554  -1.6234  -1.6042  -0.5017   0.4109   0.4298
     0.6694   0.7222   0.7495   1.0555   1.2862   1.6344   1.6427   1.8360
     1.8481   1.9068   1.9372   2.0984   2.1143   2.1591   2.2445   2.3073

     occupation numbers 
     1.0000   1.0000   1.0000   1.0000   1.0000   1.0000   1.0000   1.0000
     1.0000   1.0000   1.0000   1.0000   1.0000   1.0000   1.0000   1.0000
     1.0000   1.0000   0.0000   0.0000   0.0000   0.0000   0.0000   0.0000
     0.0000   0.0000   0.0000   0.0000   0.0000   0.0000   0.0000   0.0000
     0.0000   0.0000   0.0000   0.0000   0.0000   0.0000   0.0000   0.0000

     highest occupied, lowest unoccupied level (ev):    -6.3772   -5.8554

     The total energy is the sum of the following terms:

     one-electron contribution =    -692.52964844 Ry
     hartree contribution      =     349.72802230 Ry
     xc contribution           =     -30.80001638 Ry
     ewald contribution        =     268.46058250 Ry

!    total energy              =    -105.14106002 Ry
     Harris-Foulkes estimate   =    -105.14110862 Ry
     estimated scf accuracy    <       0.00005676 Ry

     The total energy is the sum of the following terms:

     one-electron contribution =    -692.52964844 Ry
     hartree contribution      =     349.72802230 Ry
     xc contribution           =     -30.80001638 Ry
     ewald contribution        =     268.46058250 Ry

     total magnetization       =     1.00 Bohr mag/cell
     absolute magnetization    =     1.13 Bohr mag/cell

     convergence has been achieved in   3 iterations
 
     Using Hirshfeld
        Amplitude [Ry a.u.] :  1.1100E-02
        Acceptor Fragment start :          13
        Acceptor Fragment end   :          13
        Donor Fragment start :           1
        Donor Fragment end   :          12
 
 
     Using Hirshfeld
        Amplitude [Ry a.u.] :  1.1100E-02
        Acceptor Fragment start :          13
        Acceptor Fragment end   :          13
        Donor Fragment start :           1
        Donor Fragment end   :          12
 
     E field correction              : -0.2507441886697979E+00 Ry    
 
     Donor charge                    :      0.3560800953380436 e     
     Acceptor charge                 :     -0.0543533578333628 e     
     Difference of charges           :      0.4104334531714073 e     
 
     epcdft_thr                      :  0.1000000000000000E-01 e     
     Surplus(+)/deficit(-) charge    : -0.5895665468285927E+00 e     
 
     -----------------------------------------------
 
                      SCF converged but...
 
     electron localization condition NOT satisfied
     restarting scf with different applied potential
 
     New field Amp                   :  0.1610000000000000E-01 Ry    
     charge density from previous step
 
     Using Hirshfeld
        Amplitude [Ry a.u.] :  1.6100E-02
        Acceptor Fragment start :          13
        Acceptor Fragment end   :          13
        Donor Fragment start :           1
        Donor Fragment end   :          12
 

     total cpu time spent up to now is      132.9 secs

     per-process dynamical memory:    52.2 Mb

     Self-consistent Calculation

     iteration #  1     ecut=    70.00 Ry     beta=0.70
     Davidson diagonalization with overlap
     ethr =  8.68E-06,  avg # of iterations =  6.5
 
     Magnetic moment per site:
     atom:    1    charge:    0.8343    magn:    0.0279    constr:    0.0000
     atom:    2    charge:    0.8369    magn:    0.0279    constr:    0.0000
     atom:    3    charge:    0.8420    magn:   -0.0032    constr:    0.0000
     atom:    4    charge:    0.8358    magn:    0.0113    constr:    0.0000
     atom:    5    charge:    0.8384    magn:    0.0113    constr:    0.0000
     atom:    6    charge:    0.8420    magn:   -0.0032    constr:    0.0000
     atom:    7    charge:    0.4931    magn:   -0.0008    constr:    0.0000
     atom:    8    charge:    0.4921    magn:   -0.0008    constr:    0.0000
     atom:    9    charge:    0.4927    magn:    0.0000    constr:    0.0000
     atom:   10    charge:    0.4942    magn:   -0.0004    constr:    0.0000
     atom:   11    charge:    0.4932    magn:   -0.0003    constr:    0.0000
     atom:   12    charge:    0.4927    magn:    0.0000    constr:    0.0000
     atom:   13    charge:    6.3328    magn:    0.5882    constr:    0.0000

     total cpu time spent up to now is      136.9 secs

     The total energy is the sum of the following terms:

     one-electron contribution =    -692.05980894 Ry
     hartree contribution      =     349.47636573 Ry
     xc contribution           =     -30.79683029 Ry
     ewald contribution        =     268.46058250 Ry

     total energy              =    -105.02533288 Ry
     Harris-Foulkes estimate   =    -105.02898929 Ry
     estimated scf accuracy    <       0.00502045 Ry

     total magnetization       =     1.00 Bohr mag/cell
     absolute magnetization    =     1.13 Bohr mag/cell

     iteration #  2     ecut=    70.00 Ry     beta=0.70
     Davidson diagonalization with overlap
     ethr =  1.36E-05,  avg # of iterations =  6.5
 
     Magnetic moment per site:
     atom:    1    charge:    0.8372    magn:    0.0261    constr:    0.0000
     atom:    2    charge:    0.8397    magn:    0.0262    constr:    0.0000
     atom:    3    charge:    0.8419    magn:   -0.0033    constr:    0.0000
     atom:    4    charge:    0.8384    magn:    0.0102    constr:    0.0000
     atom:    5    charge:    0.8410    magn:    0.0101    constr:    0.0000
     atom:    6    charge:    0.8419    magn:   -0.0033    constr:    0.0000
     atom:    7    charge:    0.4928    magn:   -0.0009    constr:    0.0000
     atom:    8    charge:    0.4919    magn:   -0.0009    constr:    0.0000
     atom:    9    charge:    0.4925    magn:    0.0000    constr:    0.0000
     atom:   10    charge:    0.4939    magn:   -0.0004    constr:    0.0000
     atom:   11    charge:    0.4930    magn:   -0.0004    constr:    0.0000
     atom:   12    charge:    0.4925    magn:    0.0000    constr:    0.0000
     atom:   13    charge:    6.2929    magn:    0.6174    constr:    0.0000

     total cpu time spent up to now is      140.8 secs

     The total energy is the sum of the following terms:

     one-electron contribution =    -692.99322865 Ry
     hartree contribution      =     349.64892179 Ry
     xc contribution           =     -30.79816586 Ry
     ewald contribution        =     268.46058250 Ry

     total energy              =    -105.02504103 Ry
     Harris-Foulkes estimate   =    -105.03375270 Ry
     estimated scf accuracy    <       0.02804019 Ry

     total magnetization       =     1.00 Bohr mag/cell
     absolute magnetization    =     1.14 Bohr mag/cell

     iteration #  3     ecut=    70.00 Ry     beta=0.70
     Davidson diagonalization with overlap
     ethr =  1.36E-05,  avg # of iterations =  4.0
 
     Magnetic moment per site:
     atom:    1    charge:    0.8371    magn:    0.0262    constr:    0.0000
     atom:    2    charge:    0.8396    magn:    0.0262    constr:    0.0000
     atom:    3    charge:    0.8421    magn:   -0.0034    constr:    0.0000
     atom:    4    charge:    0.8387    magn:    0.0101    constr:    0.0000
     atom:    5    charge:    0.8412    magn:    0.0100    constr:    0.0000
     atom:    6    charge:    0.8422    magn:   -0.0033    constr:    0.0000
     atom:    7    charge:    0.4928    magn:   -0.0009    constr:    0.0000
     atom:    8    charge:    0.4919    magn:   -0.0009    constr:    0.0000
     atom:    9    charge:    0.4924    magn:    0.0000    constr:    0.0000
     atom:   10    charge:    0.4940    magn:   -0.0004    constr:    0.0000
     atom:   11    charge:    0.4930    magn:   -0.0004    constr:    0.0000
     atom:   12    charge:    0.4924    magn:    0.0000    constr:    0.0000
     atom:   13    charge:    6.2909    magn:    0.6193    constr:    0.0000

     total cpu time spent up to now is      143.3 secs

     The total energy is the sum of the following terms:

     one-electron contribution =    -692.41094531 Ry
     hartree contribution      =     349.66276891 Ry
     xc contribution           =     -30.79885677 Ry
     ewald contribution        =     268.46058250 Ry

     total energy              =    -105.02824611 Ry
     Harris-Foulkes estimate   =    -105.02828422 Ry
     estimated scf accuracy    <       0.00015727 Ry

     total magnetization       =     1.00 Bohr mag/cell
     absolute magnetization    =     1.13 Bohr mag/cell

     iteration #  4     ecut=    70.00 Ry     beta=0.70
     Davidson diagonalization with overlap
     ethr =  4.25E-07,  avg # of iterations = 11.0
 
     Magnetic moment per site:
     atom:    1    charge:    0.8371    magn:    0.0261    constr:    0.0000
     atom:    2    charge:    0.8396    magn:    0.0262    constr:    0.0000
     atom:    3    charge:    0.8421    magn:   -0.0035    constr:    0.0000
     atom:    4    charge:    0.8380    magn:    0.0099    constr:    0.0000
     atom:    5    charge:    0.8405    magn:    0.0099    constr:    0.0000
     atom:    6    charge:    0.8420    magn:   -0.0035    constr:    0.0000
     atom:    7    charge:    0.4931    magn:   -0.0009    constr:    0.0000
     atom:    8    charge:    0.4922    magn:   -0.0009    constr:    0.0000
     atom:    9    charge:    0.4927    magn:    0.0000    constr:    0.0000
     atom:   10    charge:    0.4941    magn:   -0.0005    constr:    0.0000
     atom:   11    charge:    0.4932    magn:   -0.0005    constr:    0.0000
     atom:   12    charge:    0.4927    magn:    0.0000    constr:    0.0000
     atom:   13    charge:    6.2882    magn:    0.6222    constr:    0.0000

     total cpu time spent up to now is      148.8 secs

     End of self-consistent calculation

 ------ SPIN UP ------------


          k = 0.0000 0.0000 0.0000 ( 57657 PWs)   bands (ev):

   -21.7406 -19.2035 -18.9531 -18.8524 -15.3053 -15.3013 -13.3449 -11.6275
   -11.4386 -10.7463 -10.6414  -9.7535  -8.7195  -8.7162  -7.9085  -7.0612
    -6.8117  -6.7266  -6.5154  -1.8401  -1.6736  -0.4650   0.4464   0.4800
     0.6634   0.7458   0.7687   1.1003   1.2997   1.6520   1.6579   1.8612
     1.8833   1.9103   1.9530   2.0247   2.1238   2.1492   2.2755   2.3087

     occupation numbers 
     1.0000   1.0000   1.0000   1.0000   1.0000   1.0000   1.0000   1.0000
     1.0000   1.0000   1.0000   1.0000   1.0000   1.0000   1.0000   1.0000
     1.0000   1.0000   1.0000   0.0000   0.0000   0.0000   0.0000   0.0000
     0.0000   0.0000   0.0000   0.0000   0.0000   0.0000   0.0000   0.0000
     0.0000   0.0000   0.0000   0.0000   0.0000   0.0000   0.0000   0.0000

 ------ SPIN DOWN ----------


          k = 0.0000 0.0000 0.0000 ( 57657 PWs)   bands (ev):

   -21.6599 -18.9079 -18.8248 -18.3378 -15.2589 -15.2381 -13.3263 -11.5942
   -11.4040 -10.7108 -10.6357  -9.5061  -8.7010  -8.6942  -7.0156  -6.9160
    -6.5383  -6.3579  -5.8489  -1.5767  -1.5566  -0.4527   0.4600   0.4821
     0.6987   0.7745   0.7808   1.1077   1.3138   1.6700   1.6790   1.8734
     1.8915   1.9309   1.9656   2.1292   2.1519   2.2039   2.2826   2.3331

     occupation numbers 
     1.0000   1.0000   1.0000   1.0000   1.0000   1.0000   1.0000   1.0000
     1.0000   1.0000   1.0000   1.0000   1.0000   1.0000   1.0000   1.0000
     1.0000   1.0000   0.0000   0.0000   0.0000   0.0000   0.0000   0.0000
     0.0000   0.0000   0.0000   0.0000   0.0000   0.0000   0.0000   0.0000
     0.0000   0.0000   0.0000   0.0000   0.0000   0.0000   0.0000   0.0000

     highest occupied, lowest unoccupied level (ev):    -6.3579   -5.8489

     The total energy is the sum of the following terms:

[...]
     atom:    9    charge:    0.4909    magn:    0.0001    constr:    0.0000
     atom:   10    charge:    0.4927    magn:   -0.0010    constr:    0.0000
     atom:   11    charge:    0.4918    magn:   -0.0010    constr:    0.0000
     atom:   12    charge:    0.4909    magn:    0.0001    constr:    0.0000
     atom:   13    charge:    6.4672    magn:    0.3624    constr:    0.0000

     total cpu time spent up to now is      536.7 secs

     The total energy is the sum of the following terms:

     one-electron contribution =    -689.53001066 Ry
     hartree contribution      =     349.00435302 Ry
     xc contribution           =     -30.79815939 Ry
     ewald contribution        =     268.46058250 Ry

     total energy              =    -102.90947722 Ry
     Harris-Foulkes estimate   =    -102.91033829 Ry
     estimated scf accuracy    <       0.00120723 Ry

     total magnetization       =     1.00 Bohr mag/cell
     absolute magnetization    =     1.20 Bohr mag/cell

     iteration #  2     ecut=    70.00 Ry     beta=0.70
     Davidson diagonalization with overlap
     WARNING:     2 eigenvalues not converged
     c_bands:  2 eigenvalues not converged
     ethr =  3.26E-06,  avg # of iterations = 14.5
 
     Magnetic moment per site:
     atom:    1    charge:    0.8346    magn:    0.0440    constr:    0.0000
     atom:    2    charge:    0.8371    magn:    0.0441    constr:    0.0000
     atom:    3    charge:    0.8421    magn:   -0.0087    constr:    0.0000
     atom:    4    charge:    0.8373    magn:    0.0236    constr:    0.0000
     atom:    5    charge:    0.8398    magn:    0.0236    constr:    0.0000
     atom:    6    charge:    0.8421    magn:   -0.0086    constr:    0.0000
     atom:    7    charge:    0.4906    magn:   -0.0018    constr:    0.0000
     atom:    8    charge:    0.4897    magn:   -0.0018    constr:    0.0000
     atom:    9    charge:    0.4908    magn:    0.0001    constr:    0.0000
     atom:   10    charge:    0.4927    magn:   -0.0011    constr:    0.0000
     atom:   11    charge:    0.4917    magn:   -0.0011    constr:    0.0000
     atom:   12    charge:    0.4908    magn:    0.0001    constr:    0.0000
     atom:   13    charge:    6.4450    magn:    0.3802    constr:    0.0000

     total cpu time spent up to now is      544.5 secs

     The total energy is the sum of the following terms:

     one-electron contribution =    -690.14535924 Ry
     hartree contribution      =     349.08833977 Ry
     xc contribution           =     -30.79699318 Ry
     ewald contribution        =     268.46058250 Ry

     total energy              =    -102.90842818 Ry
     Harris-Foulkes estimate   =    -102.91214225 Ry
     estimated scf accuracy    <       0.01605863 Ry

     total magnetization       =     1.00 Bohr mag/cell
     absolute magnetization    =     1.20 Bohr mag/cell

     iteration #  3     ecut=    70.00 Ry     beta=0.70
     Davidson diagonalization with overlap
     WARNING:     1 eigenvalues not converged
     c_bands:  1 eigenvalues not converged
     ethr =  3.26E-06,  avg # of iterations = 12.0
 
     Magnetic moment per site:
     atom:    1    charge:    0.8346    magn:    0.0444    constr:    0.0000
     atom:    2    charge:    0.8371    magn:    0.0445    constr:    0.0000
     atom:    3    charge:    0.8425    magn:   -0.0088    constr:    0.0000
     atom:    4    charge:    0.8372    magn:    0.0239    constr:    0.0000
     atom:    5    charge:    0.8397    magn:    0.0239    constr:    0.0000
     atom:    6    charge:    0.8425    magn:   -0.0088    constr:    0.0000
     atom:    7    charge:    0.4905    magn:   -0.0018    constr:    0.0000
     atom:    8    charge:    0.4896    magn:   -0.0018    constr:    0.0000
     atom:    9    charge:    0.4907    magn:    0.0001    constr:    0.0000
     atom:   10    charge:    0.4927    magn:   -0.0011    constr:    0.0000
     atom:   11    charge:    0.4917    magn:   -0.0011    constr:    0.0000
     atom:   12    charge:    0.4907    magn:    0.0001    constr:    0.0000
     atom:   13    charge:    6.4484    magn:    0.3751    constr:    0.0000

     total cpu time spent up to now is      553.2 secs

     End of self-consistent calculation

 ------ SPIN UP ------------


          k = 0.0000 0.0000 0.0000 ( 57657 PWs)   bands (ev):

   -21.2221 -18.6328 -18.4232 -18.2297 -14.7194 -14.7107 -12.7022 -10.9571
   -10.8918 -10.1651  -9.9568  -9.2117  -8.0919  -8.0901  -7.2378  -6.6241
    -6.4551  -6.2448  -5.9847  -1.3563  -1.0242   0.1453   0.8572   1.2166
     1.2463   1.5327   1.5852   1.6511   1.8550   1.9637   2.0758   2.3365
     2.4578   2.5206   2.5892   2.6871   2.7455   2.8326   2.8756   3.0242

     occupation numbers 
     1.0000   1.0000   1.0000   1.0000   1.0000   1.0000   1.0000   1.0000
     1.0000   1.0000   1.0000   1.0000   1.0000   1.0000   1.0000   1.0000
     1.0000   1.0000   1.0000   0.0000   0.0000   0.0000   0.0000   0.0000
     0.0000   0.0000   0.0000   0.0000   0.0000   0.0000   0.0000   0.0000
     0.0000   0.0000   0.0000   0.0000   0.0000   0.0000   0.0000   0.0000

 ------ SPIN DOWN ----------


          k = 0.0000 0.0000 0.0000 ( 57657 PWs)   bands (ev):

   -21.0712 -18.3371 -18.1851 -18.0288 -14.6322 -14.5899 -12.6686 -10.8936
   -10.8279 -10.0988  -9.9500  -8.8239  -8.0637  -8.0452  -6.5603  -6.4884
    -6.2988  -5.8614  -5.4802  -0.8580  -0.7941   0.1764   0.8833   1.2294
     1.2699   1.5654   1.5952   1.6750   1.8702   1.9858   2.0950   2.3483
     2.4780   2.5575   2.6550   2.7935   2.8467   2.8985   2.9399   3.0375

     occupation numbers 
     1.0000   1.0000   1.0000   1.0000   1.0000   1.0000   1.0000   1.0000
     1.0000   1.0000   1.0000   1.0000   1.0000   1.0000   1.0000   1.0000
     1.0000   1.0000   0.0000   0.0000   0.0000   0.0000   0.0000   0.0000
     0.0000   0.0000   0.0000   0.0000   0.0000   0.0000   0.0000   0.0000
     0.0000   0.0000   0.0000   0.0000   0.0000   0.0000   0.0000   0.0000

     highest occupied, lowest unoccupied level (ev):    -5.8614   -5.4802

     The total energy is the sum of the following terms:

     one-electron contribution =    -689.65772801 Ry
     hartree contribution      =     349.08488109 Ry
     xc contribution           =     -30.79791234 Ry
     ewald contribution        =     268.46058250 Ry

!    total energy              =    -102.91017676 Ry
     Harris-Foulkes estimate   =    -102.91018427 Ry
     estimated scf accuracy    <       0.00001369 Ry

     The total energy is the sum of the following terms:

     one-electron contribution =    -689.65772801 Ry
     hartree contribution      =     349.08488109 Ry
     xc contribution           =     -30.79791234 Ry
     ewald contribution        =     268.46058250 Ry

     total magnetization       =     1.00 Bohr mag/cell
     absolute magnetization    =     1.20 Bohr mag/cell

     convergence has been achieved in   3 iterations
 
     Using Hirshfeld
        Amplitude [Ry a.u.] :  1.1110E-01
        Acceptor Fragment start :          13
        Acceptor Fragment end   :          13
        Donor Fragment start :           1
        Donor Fragment end   :          12
 
 
     Using Hirshfeld
        Amplitude [Ry a.u.] :  1.1110E-01
        Acceptor Fragment start :          13
        Acceptor Fragment end   :          13
        Donor Fragment start :           1
        Donor Fragment end   :          12
 
     E field correction              : -0.2447686817542144E+01 Ry    
 
     Donor charge                    :      0.6424146950974219 e     
     Acceptor charge                 :     -0.3262008085736738 e     
     Difference of charges           :      0.9686155036710922 e     
 
     epcdft_thr                      :  0.1000000000000000E-01 e     
     Surplus(+)/deficit(-) charge    : -0.3138449632890783E-01 e     
 
     -----------------------------------------------
 
                      SCF converged but...
 
     electron localization condition NOT satisfied
     restarting scf with different applied potential
 
     New field Amp                   :  0.1160364918663469E+00 Ry    
     charge density from previous step
 
     Using Hirshfeld
        Amplitude [Ry a.u.] :  1.1604E-01
        Acceptor Fragment start :          13
        Acceptor Fragment end   :          13
        Donor Fragment start :           1
        Donor Fragment end   :          12
 

     total cpu time spent up to now is      556.8 secs

     per-process dynamical memory:    93.1 Mb

     Self-consistent Calculation

     iteration #  1     ecut=    70.00 Ry     beta=0.70
     Davidson diagonalization with overlap
     ethr =  3.26E-06,  avg # of iterations =  9.0
 
     Magnetic moment per site:
     atom:    1    charge:    0.8335    magn:    0.0455    constr:    0.0000
     atom:    2    charge:    0.8360    magn:    0.0456    constr:    0.0000
     atom:    3    charge:    0.8421    magn:   -0.0089    constr:    0.0000
     atom:    4    charge:    0.8365    magn:    0.0250    constr:    0.0000
     atom:    5    charge:    0.8390    magn:    0.0250    constr:    0.0000
     atom:    6    charge:    0.8421    magn:   -0.0089    constr:    0.0000
     atom:    7    charge:    0.4905    magn:   -0.0018    constr:    0.0000
     atom:    8    charge:    0.4896    magn:   -0.0018    constr:    0.0000
     atom:    9    charge:    0.4908    magn:    0.0001    constr:    0.0000
     atom:   10    charge:    0.4926    magn:   -0.0011    constr:    0.0000
     atom:   11    charge:    0.4917    magn:   -0.0011    constr:    0.0000
     atom:   12    charge:    0.4908    magn:    0.0001    constr:    0.0000
     atom:   13    charge:    6.4691    magn:    0.3541    constr:    0.0000

     total cpu time spent up to now is      563.2 secs

     The total energy is the sum of the following terms:

     one-electron contribution =    -689.41845096 Ry
     hartree contribution      =     348.99378474 Ry
     xc contribution           =     -30.79802572 Ry
     ewald contribution        =     268.46058250 Ry

     total energy              =    -102.80109333 Ry
     Harris-Foulkes estimate   =    -102.80155244 Ry
     estimated scf accuracy    <       0.00065138 Ry

     total magnetization       =     1.00 Bohr mag/cell
     absolute magnetization    =     1.20 Bohr mag/cell

     iteration #  2     ecut=    70.00 Ry     beta=0.70
     Davidson diagonalization with overlap
     WARNING:     1 eigenvalues not converged
     c_bands:  1 eigenvalues not converged
     ethr =  1.76E-06,  avg # of iterations = 12.5
 
     Magnetic moment per site:
     atom:    1    charge:    0.8345    magn:    0.0449    constr:    0.0000
     atom:    2    charge:    0.8370    magn:    0.0450    constr:    0.0000
     atom:    3    charge:    0.8421    magn:   -0.0089    constr:    0.0000
     atom:    4    charge:    0.8374    magn:    0.0243    constr:    0.0000
     atom:    5    charge:    0.8399    magn:    0.0244    constr:    0.0000
     atom:    6    charge:    0.8421    magn:   -0.0089    constr:    0.0000
     atom:    7    charge:    0.4905    magn:   -0.0018    constr:    0.0000
     atom:    8    charge:    0.4895    magn:   -0.0018    constr:    0.0000
     atom:    9    charge:    0.4907    magn:    0.0001    constr:    0.0000
     atom:   10    charge:    0.4926    magn:   -0.0011    constr:    0.0000
     atom:   11    charge:    0.4917    magn:   -0.0011    constr:    0.0000
     atom:   12    charge:    0.4907    magn:    0.0001    constr:    0.0000
     atom:   13    charge:    6.4528    magn:    0.3672    constr:    0.0000

     total cpu time spent up to now is      570.1 secs

     The total energy is the sum of the following terms:

     one-electron contribution =    -689.86336142 Ry
     hartree contribution      =     349.05468626 Ry
     xc contribution           =     -30.79700877 Ry
     ewald contribution        =     268.46058250 Ry

     total energy              =    -102.80054056 Ry
     Harris-Foulkes estimate   =    -102.80246565 Ry
     estimated scf accuracy    <       0.00818124 Ry

     total magnetization       =     1.00 Bohr mag/cell
     absolute magnetization    =     1.21 Bohr mag/cell

     iteration #  3     ecut=    70.00 Ry     beta=0.70
     Davidson diagonalization with overlap
     WARNING:     1 eigenvalues not converged
     c_bands:  1 eigenvalues not converged
     ethr =  1.76E-06,  avg # of iterations = 12.5
 
     Magnetic moment per site:
     atom:    1    charge:    0.8346    magn:    0.0453    constr:    0.0000
     atom:    2    charge:    0.8371    magn:    0.0454    constr:    0.0000
     atom:    3    charge:    0.8425    magn:   -0.0091    constr:    0.0000
     atom:    4    charge:    0.8368    magn:    0.0247    constr:    0.0000
     atom:    5    charge:    0.8393    magn:    0.0247    constr:    0.0000
     atom:    6    charge:    0.8425    magn:   -0.0091    constr:    0.0000
     atom:    7    charge:    0.4904    magn:   -0.0018    constr:    0.0000
     atom:    8    charge:    0.4895    magn:   -0.0018    constr:    0.0000
     atom:    9    charge:    0.4907    magn:    0.0001    constr:    0.0000
     atom:   10    charge:    0.4926    magn:   -0.0011    constr:    0.0000
     atom:   11    charge:    0.4917    magn:   -0.0011    constr:    0.0000
     atom:   12    charge:    0.4907    magn:    0.0001    constr:    0.0000
     atom:   13    charge:    6.4566    magn:    0.3622    constr:    0.0000

     total cpu time spent up to now is      578.8 secs

     End of self-consistent calculation

 ------ SPIN UP ------------


          k = 0.0000 0.0000 0.0000 ( 57657 PWs)   bands (ev):

   -21.1975 -18.6066 -18.3963 -18.1993 -14.6906 -14.6819 -12.6707 -10.9241
   -10.8652 -10.1366  -9.9230  -9.1862  -8.0611  -8.0591  -7.2055  -6.6055
    -6.4398  -6.2197  -5.9571  -1.3335  -0.9922   0.1488   0.8852   1.2250
     1.2556   1.5642   1.6160   1.6769   1.8778   1.9872   2.1033   2.3530
     2.4751   2.5502   2.6194   2.7198   2.7753   2.8586   2.9064   3.0469

     occupation numbers 
     1.0000   1.0000   1.0000   1.0000   1.0000   1.0000   1.0000   1.0000
     1.0000   1.0000   1.0000   1.0000   1.0000   1.0000   1.0000   1.0000
     1.0000   1.0000   1.0000   0.0000   0.0000   0.0000   0.0000   0.0000
     0.0000   0.0000   0.0000   0.0000   0.0000   0.0000   0.0000   0.0000
     0.0000   0.0000   0.0000   0.0000   0.0000   0.0000   0.0000   0.0000

 ------ SPIN DOWN ----------


          k = 0.0000 0.0000 0.0000 ( 57657 PWs)   bands (ev):

   -21.0426 -18.3100 -18.1537 -18.0130 -14.6015 -14.5577 -12.6363 -10.8588
   -10.7997 -10.0688  -9.9162  -8.7900  -8.0322  -8.0131  -6.5417  -6.4726
    -6.2877  -5.8326  -5.4566  -0.8221  -0.7552   0.1804   0.9103   1.2380
     1.2798   1.5940   1.6278   1.7018   1.8931   2.0089   2.1224   2.3653
     2.4940   2.5887   2.6905   2.8241   2.8719   2.9302   2.9764   3.0595

     occupation numbers 
     1.0000   1.0000   1.0000   1.0000   1.0000   1.0000   1.0000   1.0000
     1.0000   1.0000   1.0000   1.0000   1.0000   1.0000   1.0000   1.0000
     1.0000   1.0000   0.0000   0.0000   0.0000   0.0000   0.0000   0.0000
     0.0000   0.0000   0.0000   0.0000   0.0000   0.0000   0.0000   0.0000
     0.0000   0.0000   0.0000   0.0000   0.0000   0.0000   0.0000   0.0000

     highest occupied, lowest unoccupied level (ev):    -5.8326   -5.4566

     The total energy is the sum of the following terms:

     one-electron contribution =    -689.51802677 Ry
     hartree contribution      =     349.05434479 Ry
     xc contribution           =     -30.79835344 Ry
     ewald contribution        =     268.46058250 Ry

!    total energy              =    -102.80145292 Ry
     Harris-Foulkes estimate   =    -102.80146886 Ry
     estimated scf accuracy    <       0.00002217 Ry

     The total energy is the sum of the following terms:

     one-electron contribution =    -689.51802677 Ry
     hartree contribution      =     349.05434479 Ry
     xc contribution           =     -30.79835344 Ry
     ewald contribution        =     268.46058250 Ry

     total magnetization       =     1.00 Bohr mag/cell
     absolute magnetization    =     1.21 Bohr mag/cell

     convergence has been achieved in   3 iterations
 
     Using Hirshfeld
        Amplitude [Ry a.u.] :  1.1604E-01
        Acceptor Fragment start :          13
        Acceptor Fragment end   :          13
        Donor Fragment start :           1
        Donor Fragment end   :          12
 
 
     Using Hirshfeld
        Amplitude [Ry a.u.] :  1.1604E-01
        Acceptor Fragment start :          13
        Acceptor Fragment end   :          13
        Donor Fragment start :           1
        Donor Fragment end   :          12
 
     E field correction              : -0.2553281065615748E+01 Ry    
 
     Donor charge                    :      0.6563341506410012 e     
     Acceptor charge                 :     -0.3395443480241651 e     
     Difference of charges           :      0.9958784986651636 e     

     Writing output data file left.save
 
     init_run     :     18.60s CPU     18.60s WALL (       1 calls)
     electrons    :    496.10s CPU    496.10s WALL (      27 calls)
     update_pot   :      8.49s CPU      8.49s WALL (      26 calls)

     Called by init_run:
     wfcinit      :      7.46s CPU      7.46s WALL (       1 calls)
     potinit      :      0.50s CPU      0.50s WALL (       1 calls)

     Called by electrons:
     c_bands      :    392.12s CPU    392.12s WALL (      91 calls)
     sum_band     :      8.43s CPU      8.43s WALL (      91 calls)
     v_of_rho     :     34.88s CPU     34.88s WALL (     117 calls)
     v_h          :      0.30s CPU      0.30s WALL (     117 calls)
     v_xc         :     34.57s CPU     34.57s WALL (     117 calls)
     mix_rho      :      0.34s CPU      0.34s WALL (      91 calls)

     Called by c_bands:
     init_us_2    :      0.38s CPU      0.38s WALL (     366 calls)
     regterg      :    388.30s CPU    388.30s WALL (     182 calls)

     Called by sum_band:

     Called by *egterg:
     h_psi        :     48.25s CPU     48.25s WALL (    1765 calls)
     g_psi        :      0.87s CPU      0.87s WALL (    1581 calls)
     rdiaghg      :    287.99s CPU    287.99s WALL (    1709 calls)
     regterg:over :     11.68s CPU     11.68s WALL (    1581 calls)
     regterg:upda :     10.43s CPU     10.43s WALL (    1581 calls)
     regterg:last :      2.45s CPU      2.45s WALL (     256 calls)
     rdiaghg:chol :     11.18s CPU     11.18s WALL (    1709 calls)
     rdiaghg:inve :     10.19s CPU     10.19s WALL (    1709 calls)
     rdiaghg:para :     25.32s CPU     25.32s WALL (    3418 calls)

     Called by h_psi:
     h_psi:vloc   :     44.76s CPU     44.76s WALL (    1765 calls)
     h_psi:vnl    :      3.42s CPU      3.42s WALL (    1765 calls)
     add_vuspsi   :      2.06s CPU      2.06s WALL (    1765 calls)

     General routines
     calbec       :      1.34s CPU      1.34s WALL (    1765 calls)
     fft          :     35.03s CPU     35.04s WALL (   19203 calls)
     fftw         :     45.45s CPU     45.47s WALL (   34492 calls)
 
     Parallel routines
     fft_scatter  :     43.16s CPU     43.16s WALL (   53695 calls)
 
     PWSCF        :  9m50.46s CPU     9m50.46s WALL

 
   This run was terminated on:   0: 5:19  20Aug2015            

=------------------------------------------------------------------------------=
   JOB DONE.
=------------------------------------------------------------------------------=
2015-08-20 00:05:36.164 (INFO ) [0xfffa099c410] CET-42400-53731-128:1291014:ibm.runjob.client.Job: exited with status 0
2015-08-20 00:05:36.165 (INFO ) [0xfffa099c410] tatu.runjob.client: task exited with status 0
2015-08-20 00:05:36.165 (INFO ) [0xfff943434e0] 44732:tatu.runjob.monitor: monitor terminating
2015-08-20 00:05:36.170 (INFO ) [0xfffa099c410] tatu.runjob.client: monitor completed
