2015-08-24 14:47:10.178 (INFO ) [0xfff8f1bc410] ibm.runjob.AbstractOptions: using properties file /bgsys/local/etc/bg.properties
2015-08-24 14:47:10.185 (INFO ) [0xfff8f1bc410] ibm.runjob.AbstractOptions: max open file descriptors: 65536
2015-08-24 14:47:10.186 (INFO ) [0xfff8f1bc410] ibm.runjob.AbstractOptions: core file limit: 18446744073709551615
2015-08-24 14:47:10.187 (INFO ) [0xfff8f1bc410] 9457:tatu.runjob.client: scheduler job id is 568292
2015-08-24 14:47:10.192 (INFO ) [0xfff9ee234e0] 9457:tatu.runjob.monitor: monitor started
2015-08-24 14:47:14.221 (INFO ) [0xfff9ee234e0] 9457:tatu.runjob.monitor: task record 1238245 created
2015-08-24 14:47:14.222 (INFO ) [0xfff8f1bc410] CET-20400-31731-128:9457:ibm.runjob.client.options.Parser: set local socket to runjob_mux from properties file
2015-08-24 14:47:17.046 (INFO ) [0xfff8f1bc410] CET-20400-31731-128:1297010:ibm.runjob.client.Job: job 1297010 started

     Program PWSCF v.5.1.1 starts on 24Aug2015 at 14:47:17 

     This program is part of the open-source Quantum ESPRESSO suite
     for quantum simulation of materials; please cite
         "P. Giannozzi et al., J. Phys.:Condens. Matter 21 395502 (2009);
          URL http://www.quantum-espresso.org", 
     in publications or presentations arising from this work. More details at
     http://www.quantum-espresso.org/quote

     Parallel version (MPI & OpenMP), running on    1024 processor cores
     Number of MPI processes:              1024
     Threads/MPI process:                     1
     R & G space division:  proc/nbgrp/npool/nimage =    1024
     Waiting for input...
     Reading input from standard input

     Current dimensions of program PWSCF are:
     Max number of different atomic species (ntypx) = 10
     Max number of k-points (npk) =  40000
     Max angular momentum in pseudopotentials (lmaxx) =  3
               file C.pbe-mt_fhi.UPF: wavefunction(s)  4f renormalized
               file H.pbe-mt_fhi.UPF: wavefunction(s)  2p 4f renormalized
               file Cl.pbe-mt_fhi.UPF: wavefunction(s)  4f renormalized

     gamma-point specific algorithms are used
     Message from routine setup:
     the system is metallic, specify occupations

     Subspace diagonalization in iterative solution of the eigenvalue problem:
     scalapack distributed-memory algorithm (size of sub-group: 22* 22 procs)

 
     Parallelization info
     --------------------
     sticks:   dense  smooth     PW     G-vecs:    dense   smooth      PW
     Min          64      64     16                12444    12444    1528
     Max          66      66     18                12482    12482    1576
     Sum       65993   65993  16525             12760697 12760697 1595549
     Tot       32997   32997   8263
 
     Generating pointlists ...
     new r_m :   0.0203 (alat units)  0.8450 (a.u.) for type    1
     new r_m :   0.0203 (alat units)  0.8450 (a.u.) for type    2
     new r_m :   0.0578 (alat units)  2.4011 (a.u.) for type    3
2015-08-24 14:47:23.439 (INFO ) [0xfff9ee234e0] 9457:tatu.runjob.monitor: tracklib completed


     bravais-lattice index     =            1
     lattice parameter (alat)  =      41.5740  a.u.
     unit-cell volume          =   71856.2666 (a.u.)^3
     number of atoms/cell      =           13
     number of atomic types    =            3
     number of electrons       =        37.00 (up:  19.00, down:  18.00)
     number of Kohn-Sham states=           40
     kinetic-energy cutoff     =     120.0000  Ry
     charge density cutoff     =     480.0000  Ry
     convergence threshold     =      1.0E-12
     mixing beta               =       0.7000
     number of iterations used =            8  plain     mixing
     Exchange-correlation      = PBE ( 1  4  3  4 0 0)
     Assuming isolated system, Martyna-Tuckerman method


     celldm(1)=  41.573975  celldm(2)=   0.000000  celldm(3)=   0.000000
     celldm(4)=   0.000000  celldm(5)=   0.000000  celldm(6)=   0.000000

     crystal axes: (cart. coord. in units of alat)
               a(1) = (   1.000000   0.000000   0.000000 )  
               a(2) = (   0.000000   1.000000   0.000000 )  
               a(3) = (   0.000000   0.000000   1.000000 )  

     reciprocal axes: (cart. coord. in units 2 pi/alat)
               b(1) = (  1.000000  0.000000  0.000000 )  
               b(2) = (  0.000000  1.000000  0.000000 )  
               b(3) = (  0.000000  0.000000  1.000000 )  


     PseudoPot. # 1 for  C read from file:
     ./C.pbe-mt_fhi.UPF
     MD5 check sum: 058ca341f9d6d5327d9962fd88a91b65
     Pseudo is Norm-conserving, Zval =  4.0
     Generated using FHI98PP, converted with fhi2upf.x v.5.0.2
     Using radial grid of  461 points,  3 beta functions with: 
                l(1) =   0
                l(2) =   1
                l(3) =   3

     PseudoPot. # 2 for  H read from file:
     ./H.pbe-mt_fhi.UPF
     MD5 check sum: a19bd5488733b3d98581df861506e80d
     Pseudo is Norm-conserving, Zval =  1.0
     Generated using FHI98PP, converted with fhi2upf.x v.5.0.2
     Using radial grid of  387 points,  3 beta functions with: 
                l(1) =   0
                l(2) =   1
                l(3) =   3

     PseudoPot. # 3 for Cl read from file:
     ./Cl.pbe-mt_fhi.UPF
     MD5 check sum: 2690b95bbfe21454a1a3af22474751ef
     Pseudo is Norm-conserving, Zval =  7.0
     Generated using FHI98PP, converted with fhi2upf.x v.5.0.2
     Using radial grid of  503 points,  3 beta functions with: 
                l(1) =   0
                l(2) =   1
                l(3) =   3

     atomic species   valence    mass     pseudopotential
        C              4.00    12.01070      C( 1.00)
        H              1.00     1.00794      H( 1.00)
        Cl             7.00     1.00000     Cl( 1.00)

     Starting magnetic structure 
     atomic species   magnetization
        C            0.000
        H            0.000
        Cl           0.000

     No symmetry found


                                    s                        frac. trans.

      isym =  1     identity                                     

 cryst.   s( 1) = (     1          0          0      )
                  (     0          1          0      )
                  (     0          0          1      )

 cart.    s( 1) = (  1.0000000  0.0000000  0.0000000 )
                  (  0.0000000  1.0000000  0.0000000 )
                  (  0.0000000  0.0000000  1.0000000 )


     point group C_1 (1)    
     there are  1 classes
     the character table:

       E    
A      1.00

     the symmetry operations in each class:
     E        1

   Cartesian axes

     site n.     atom                  positions (alat units)
         1           C   tau(   1) = (   0.0000000   0.0635000   0.0000000  )
         2           C   tau(   2) = (   0.0549909   0.0317500   0.0000000  )
         3           C   tau(   3) = (   0.0549909  -0.0317500   0.0000000  )
         4           C   tau(   4) = (   0.0000000  -0.0635000   0.0000000  )
         5           C   tau(   5) = (  -0.0549909  -0.0317500   0.0000000  )
         6           C   tau(   6) = (  -0.0549909   0.0317500   0.0000000  )
         7           H   tau(   7) = (   0.0000000   0.1127727   0.0000000  )
         8           H   tau(   8) = (   0.0976636   0.0563864   0.0000000  )
         9           H   tau(   9) = (   0.0976636  -0.0563864   0.0000000  )
        10           H   tau(  10) = (   0.0000000  -0.1127727   0.0000000  )
        11           H   tau(  11) = (  -0.0976636  -0.0563864   0.0000000  )
        12           H   tau(  12) = (  -0.0976636   0.0563864   0.0000000  )
        13           Cl  tau(  13) = (   0.0274955   0.0476250   0.1363636  )

   Crystallographic axes

     site n.     atom                  positions (cryst. coord.)
         1           C   tau(   1) = (  0.0000000  0.0635000  0.0000000  )
         2           C   tau(   2) = (  0.0549909  0.0317500  0.0000000  )
         3           C   tau(   3) = (  0.0549909 -0.0317500  0.0000000  )
         4           C   tau(   4) = (  0.0000000 -0.0635000  0.0000000  )
         5           C   tau(   5) = ( -0.0549909 -0.0317500  0.0000000  )
         6           C   tau(   6) = ( -0.0549909  0.0317500  0.0000000  )
         7           H   tau(   7) = (  0.0000000  0.1127727  0.0000000  )
         8           H   tau(   8) = (  0.0976636  0.0563864  0.0000000  )
         9           H   tau(   9) = (  0.0976636 -0.0563864  0.0000000  )
        10           H   tau(  10) = (  0.0000000 -0.1127727  0.0000000  )
        11           H   tau(  11) = ( -0.0976636 -0.0563864  0.0000000  )
        12           H   tau(  12) = ( -0.0976636  0.0563864  0.0000000  )
        13           Cl  tau(  13) = (  0.0274955  0.0476250  0.1363636  )

     number of k points=     2
                       cart. coord. in units 2pi/alat
        k(    1) = (   0.0000000   0.0000000   0.0000000), wk =   1.0000000
        k(    2) = (   0.0000000   0.0000000   0.0000000), wk =   1.0000000

                       cryst. coord.
        k(    1) = (   0.0000000   0.0000000   0.0000000), wk =   1.0000000
        k(    2) = (   0.0000000   0.0000000   0.0000000), wk =   1.0000000

     Dense  grid:  6380349 G-vectors     FFT dimensions: ( 308, 308, 308)

     Largest allocated arrays     est. size (Mb)     dimensions
        Kohn-Sham Wavefunctions         0.48 Mb     (     782,   40)
        NL pseudopotentials             1.71 Mb     (     782,  143)
        Each V/rho on FFT grid          2.90 Mb     (   94864,   2)
        Each G-vector array             0.05 Mb     (    6232)
        G-vector shells                 0.02 Mb     (    2800)
     Largest temporary arrays     est. size (Mb)     dimensions
        Each subspace H/S matrix        0.00 Mb     (       1,    1)
        Each <psi_i|beta_j> matrix      0.04 Mb     (     143,   40)
        Arrays for rho mixing          11.58 Mb     (   94864,    8)
 
     Using Hirshfeld
        Amplitude [Ry a.u.] :  1.1821E-01
        Acceptor Fragment start :          13
        Acceptor Fragment end   :          13
        Donor Fragment start :           1
        Donor Fragment end   :          12
 

     Initial potential from superposition of free atoms
     Check: negative starting charge=(component1):   -0.003540
     Check: negative starting charge=(component2):   -0.003540

     starting charge   36.99968, renormalised to   37.00000

     negative rho (up, down):  3.540E-03 3.540E-03
     Starting wfc are  208 randomized atomic wfcs

     total cpu time spent up to now is       51.7 secs

     per-process dynamical memory:    69.4 Mb

     Self-consistent Calculation

     iteration #  1     ecut=   120.00 Ry     beta=0.70
     CG style diagonalization
     ethr =  1.00E-02,  avg # of iterations =  5.5

     negative rho (up, down):  9.293E-04 9.335E-04
 
     Magnetic moment per site:
     atom:    1    charge:    0.8568    magn:    0.0323    constr:    0.0000
     atom:    2    charge:    0.8563    magn:    0.0336    constr:    0.0000
     atom:    3    charge:    0.8882    magn:    0.0004    constr:    0.0000
     atom:    4    charge:    0.8613    magn:    0.0255    constr:    0.0000
     atom:    5    charge:    0.8611    magn:    0.0262    constr:    0.0000
     atom:    6    charge:    0.8883    magn:    0.0002    constr:    0.0000
     atom:    7    charge:    0.4412    magn:    0.0007    constr:    0.0000
     atom:    8    charge:    0.4408    magn:    0.0007    constr:    0.0000
     atom:    9    charge:    0.4416    magn:   -0.0001    constr:    0.0000
     atom:   10    charge:    0.4417    magn:    0.0005    constr:    0.0000
     atom:   11    charge:    0.4410    magn:    0.0006    constr:    0.0000
     atom:   12    charge:    0.4418    magn:    0.0001    constr:    0.0000
     atom:   13    charge:    6.6606    magn:    0.0921    constr:    0.0000

     total cpu time spent up to now is       65.9 secs

     The total energy is the sum of the following terms:

     one-electron contribution =    -696.00972128 Ry
     hartree contribution      =     351.25620253 Ry
     xc contribution           =     -30.93190783 Ry
     ewald contribution        =     268.46058250 Ry

     total energy              =    -102.46200038 Ry
     Harris-Foulkes estimate   =    -103.24747448 Ry
     estimated scf accuracy    <       1.31386845 Ry

     total magnetization       =     1.00 Bohr mag/cell
     absolute magnetization    =     1.00 Bohr mag/cell

     iteration #  2     ecut=   120.00 Ry     beta=0.70
     CG style diagonalization
     ethr =  3.55E-03,  avg # of iterations =  5.7

     negative rho (up, down):  4.364E-04 4.394E-04
 
     Magnetic moment per site:
     atom:    1    charge:    0.8523    magn:    0.0254    constr:    0.0000
     atom:    2    charge:    0.8533    magn:    0.0263    constr:    0.0000
     atom:    3    charge:    0.8441    magn:   -0.0015    constr:    0.0000
     atom:    4    charge:    0.8587    magn:    0.0170    constr:    0.0000
     atom:    5    charge:    0.8597    magn:    0.0174    constr:    0.0000
     atom:    6    charge:    0.8439    magn:   -0.0016    constr:    0.0000
     atom:    7    charge:    0.4730    magn:   -0.0001    constr:    0.0000
     atom:    8    charge:    0.4726    magn:   -0.0001    constr:    0.0000
     atom:    9    charge:    0.4741    magn:   -0.0002    constr:    0.0000
     atom:   10    charge:    0.4748    magn:   -0.0002    constr:    0.0000
     atom:   11    charge:    0.4742    magn:   -0.0001    constr:    0.0000
     atom:   12    charge:    0.4741    magn:   -0.0001    constr:    0.0000
     atom:   13    charge:    6.2843    magn:    0.3689    constr:    0.0000

     total cpu time spent up to now is       77.7 secs

     The total energy is the sum of the following terms:

     one-electron contribution =    -687.11136488 Ry
     hartree contribution      =     348.96205728 Ry
     xc contribution           =     -30.65856450 Ry
     ewald contribution        =     268.46058250 Ry

     total energy              =    -102.59693084 Ry
     Harris-Foulkes estimate   =    -102.87945286 Ry
     estimated scf accuracy    <       0.50555470 Ry

     total magnetization       =     1.00 Bohr mag/cell
     absolute magnetization    =     1.11 Bohr mag/cell

     iteration #  3     ecut=   120.00 Ry     beta=0.70
     CG style diagonalization
     ethr =  1.37E-03,  avg # of iterations =  4.0

     negative rho (up, down):  2.248E-04 2.262E-04
 
     Magnetic moment per site:
     atom:    1    charge:    0.8389    magn:    0.0316    constr:    0.0000
     atom:    2    charge:    0.8395    magn:    0.0330    constr:    0.0000
     atom:    3    charge:    0.8367    magn:   -0.0028    constr:    0.0000
     atom:    4    charge:    0.8374    magn:    0.0241    constr:    0.0000
     atom:    5    charge:    0.8380    magn:    0.0251    constr:    0.0000
     atom:    6    charge:    0.8366    magn:   -0.0028    constr:    0.0000
     atom:    7    charge:    0.4856    magn:   -0.0002    constr:    0.0000
     atom:    8    charge:    0.4851    magn:   -0.0002    constr:    0.0000
     atom:    9    charge:    0.4879    magn:   -0.0002    constr:    0.0000
     atom:   10    charge:    0.4874    magn:   -0.0002    constr:    0.0000
     atom:   11    charge:    0.4868    magn:   -0.0001    constr:    0.0000
     atom:   12    charge:    0.4880    magn:   -0.0001    constr:    0.0000
     atom:   13    charge:    6.4511    magn:    0.2947    constr:    0.0000

     total cpu time spent up to now is       86.5 secs

     The total energy is the sum of the following terms:

     one-electron contribution =    -687.71794934 Ry
     hartree contribution      =     348.15241642 Ry
     xc contribution           =     -30.68949982 Ry
     ewald contribution        =     268.46058250 Ry

     total energy              =    -102.71345858 Ry
     Harris-Foulkes estimate   =    -102.84160479 Ry
     estimated scf accuracy    <       0.30785495 Ry

     total magnetization       =     1.00 Bohr mag/cell
     absolute magnetization    =     1.12 Bohr mag/cell

     iteration #  4     ecut=   120.00 Ry     beta=0.70
     CG style diagonalization
     ethr =  8.32E-04,  avg # of iterations =  3.2

     negative rho (up, down):  5.661E-05 5.694E-05
 
     Magnetic moment per site:
     atom:    1    charge:    0.8315    magn:    0.0355    constr:    0.0000
     atom:    2    charge:    0.8322    magn:    0.0367    constr:    0.0000
     atom:    3    charge:    0.8406    magn:   -0.0040    constr:    0.0000
     atom:    4    charge:    0.8394    magn:    0.0236    constr:    0.0000
     atom:    5    charge:    0.8401    magn:    0.0245    constr:    0.0000
     atom:    6    charge:    0.8408    magn:   -0.0040    constr:    0.0000
     atom:    7    charge:    0.4917    magn:   -0.0006    constr:    0.0000
     atom:    8    charge:    0.4911    magn:   -0.0006    constr:    0.0000
     atom:    9    charge:    0.4932    magn:   -0.0002    constr:    0.0000
     atom:   10    charge:    0.4942    magn:   -0.0005    constr:    0.0000
     atom:   11    charge:    0.4937    magn:   -0.0005    constr:    0.0000
     atom:   12    charge:    0.4932    magn:   -0.0002    constr:    0.0000
     atom:   13    charge:    6.4470    magn:    0.3465    constr:    0.0000

     total cpu time spent up to now is       93.9 secs

     The total energy is the sum of the following terms:

     one-electron contribution =    -690.03067074 Ry
     hartree contribution      =     348.79420306 Ry
     xc contribution           =     -30.77055955 Ry
     ewald contribution        =     268.46058250 Ry

     total energy              =    -102.75617572 Ry
     Harris-Foulkes estimate   =    -102.76390023 Ry
     estimated scf accuracy    <       0.01681145 Ry

     total magnetization       =     1.00 Bohr mag/cell
     absolute magnetization    =     1.12 Bohr mag/cell

     iteration #  5     ecut=   120.00 Ry     beta=0.70
     CG style diagonalization
     c_bands:  1 eigenvalues not converged
     c_bands:  3 eigenvalues not converged
     ethr =  4.54E-05,  avg # of iterations =  7.3

     negative rho (up, down):  2.164E-05 2.180E-05
 
     Magnetic moment per site:
     atom:    1    charge:    0.8363    magn:    0.0383    constr:    0.0000
     atom:    2    charge:    0.8368    magn:    0.0395    constr:    0.0000
     atom:    3    charge:    0.8420    magn:   -0.0052    constr:    0.0000
     atom:    4    charge:    0.8376    magn:    0.0244    constr:    0.0000
     atom:    5    charge:    0.8381    magn:    0.0253    constr:    0.0000
     atom:    6    charge:    0.8420    magn:   -0.0053    constr:    0.0000
     atom:    7    charge:    0.4914    magn:   -0.0009    constr:    0.0000
     atom:    8    charge:    0.4909    magn:   -0.0009    constr:    0.0000
     atom:    9    charge:    0.4923    magn:   -0.0002    constr:    0.0000
     atom:   10    charge:    0.4936    magn:   -0.0007    constr:    0.0000
     atom:   11    charge:    0.4931    magn:   -0.0007    constr:    0.0000
     atom:   12    charge:    0.4923    magn:   -0.0002    constr:    0.0000
     atom:   13    charge:    6.4521    magn:    0.3495    constr:    0.0000

     total cpu time spent up to now is      108.6 secs

     The total energy is the sum of the following terms:

     one-electron contribution =    -689.50548752 Ry
     hartree contribution      =     348.94279431 Ry
     xc contribution           =     -30.78684648 Ry
     ewald contribution        =     268.46058250 Ry

     total energy              =    -102.76032134 Ry
     Harris-Foulkes estimate   =    -102.76267985 Ry
     estimated scf accuracy    <       0.00616512 Ry

     total magnetization       =     1.00 Bohr mag/cell
     absolute magnetization    =     1.16 Bohr mag/cell

     iteration #  6     ecut=   120.00 Ry     beta=0.70
     CG style diagonalization
     ethr =  1.67E-05,  avg # of iterations =  4.1

     negative rho (up, down):  8.452E-06 8.543E-06
 
     Magnetic moment per site:
     atom:    1    charge:    0.8367    magn:    0.0408    constr:    0.0000
     atom:    2    charge:    0.8372    magn:    0.0418    constr:    0.0000
     atom:    3    charge:    0.8424    magn:   -0.0062    constr:    0.0000
     atom:    4    charge:    0.8395    magn:    0.0246    constr:    0.0000
     atom:    5    charge:    0.8401    magn:    0.0254    constr:    0.0000
     atom:    6    charge:    0.8424    magn:   -0.0063    constr:    0.0000
     atom:    7    charge:    0.4905    magn:   -0.0011    constr:    0.0000
     atom:    8    charge:    0.4900    magn:   -0.0011    constr:    0.0000
     atom:    9    charge:    0.4913    magn:   -0.0002    constr:    0.0000
     atom:   10    charge:    0.4929    magn:   -0.0008    constr:    0.0000
     atom:   11    charge:    0.4924    magn:   -0.0009    constr:    0.0000
     atom:   12    charge:    0.4913    magn:   -0.0002    constr:    0.0000
     atom:   13    charge:    6.4579    magn:    0.3492    constr:    0.0000

     total cpu time spent up to now is      117.5 secs

     The total energy is the sum of the following terms:

     one-electron contribution =    -689.46597258 Ry
     hartree contribution      =     348.97610163 Ry
     xc contribution           =     -30.79322505 Ry
     ewald contribution        =     268.46058250 Ry

     total energy              =    -102.76148019 Ry
     Harris-Foulkes estimate   =    -102.76172894 Ry
     estimated scf accuracy    <       0.00081764 Ry

     total magnetization       =     1.00 Bohr mag/cell
     absolute magnetization    =     1.17 Bohr mag/cell

     iteration #  7     ecut=   120.00 Ry     beta=0.70
     CG style diagonalization
     ethr =  2.21E-06,  avg # of iterations =  5.1

     negative rho (up, down):  1.601E-06 1.627E-06
 
     Magnetic moment per site:
     atom:    1    charge:    0.8371    magn:    0.0427    constr:    0.0000
     atom:    2    charge:    0.8376    magn:    0.0435    constr:    0.0000
     atom:    3    charge:    0.8430    magn:   -0.0073    constr:    0.0000
     atom:    4    charge:    0.8400    magn:    0.0246    constr:    0.0000
     atom:    5    charge:    0.8405    magn:    0.0253    constr:    0.0000
     atom:    6    charge:    0.8430    magn:   -0.0074    constr:    0.0000
     atom:    7    charge:    0.4901    magn:   -0.0014    constr:    0.0000
     atom:    8    charge:    0.4896    magn:   -0.0015    constr:    0.0000
     atom:    9    charge:    0.4909    magn:   -0.0001    constr:    0.0000
     atom:   10    charge:    0.4923    magn:   -0.0010    constr:    0.0000
     atom:   11    charge:    0.4918    magn:   -0.0011    constr:    0.0000
     atom:   12    charge:    0.4909    magn:   -0.0001    constr:    0.0000
     atom:   13    charge:    6.4547    magn:    0.3568    constr:    0.0000

     total cpu time spent up to now is      128.3 secs

     The total energy is the sum of the following terms:

     one-electron contribution =    -689.48037781 Ry
     hartree contribution      =     349.00652006 Ry
     xc contribution           =     -30.79459847 Ry
     ewald contribution        =     268.46058250 Ry

     total energy              =    -102.76168098 Ry
     Harris-Foulkes estimate   =    -102.76167086 Ry
     estimated scf accuracy    <       0.00011859 Ry

     total magnetization       =     1.00 Bohr mag/cell
     absolute magnetization    =     1.18 Bohr mag/cell

     iteration #  8     ecut=   120.00 Ry     beta=0.70
     CG style diagonalization
     ethr =  3.21E-07,  avg # of iterations =  5.9

     negative rho (up, down):  1.639E-06 1.662E-06
 
     Magnetic moment per site:
     atom:    1    charge:    0.8368    magn:    0.0444    constr:    0.0000
     atom:    2    charge:    0.8373    magn:    0.0450    constr:    0.0000
     atom:    3    charge:    0.8429    magn:   -0.0082    constr:    0.0000
     atom:    4    charge:    0.8397    magn:    0.0249    constr:    0.0000
     atom:    5    charge:    0.8403    magn:    0.0253    constr:    0.0000
     atom:    6    charge:    0.8428    magn:   -0.0084    constr:    0.0000
     atom:    7    charge:    0.4903    magn:   -0.0016    constr:    0.0000
     atom:    8    charge:    0.4898    magn:   -0.0017    constr:    0.0000
     atom:    9    charge:    0.4909    magn:    0.0000    constr:    0.0000
     atom:   10    charge:    0.4924    magn:   -0.0011    constr:    0.0000
     atom:   11    charge:    0.4919    magn:   -0.0012    constr:    0.0000
     atom:   12    charge:    0.4909    magn:    0.0000    constr:    0.0000
     atom:   13    charge:    6.4564    magn:    0.3574    constr:    0.0000

     total cpu time spent up to now is      140.4 secs

     The total energy is the sum of the following terms:

     one-electron contribution =    -689.37631244 Ry
     hartree contribution      =     348.98876202 Ry
     xc contribution           =     -30.79428116 Ry
     ewald contribution        =     268.46058250 Ry

     total energy              =    -102.76173166 Ry
     Harris-Foulkes estimate   =    -102.76173620 Ry
     estimated scf accuracy    <       0.00005649 Ry

     total magnetization       =     1.00 Bohr mag/cell
     absolute magnetization    =     1.19 Bohr mag/cell

     iteration #  9     ecut=   120.00 Ry     beta=0.70
     CG style diagonalization
     ethr =  1.53E-07,  avg # of iterations =  5.5

     negative rho (up, down):  8.414E-08 8.654E-08
 
     Magnetic moment per site:
     atom:    1    charge:    0.8369    magn:    0.0447    constr:    0.0000
     atom:    2    charge:    0.8373    magn:    0.0452    constr:    0.0000
     atom:    3    charge:    0.8427    magn:   -0.0086    constr:    0.0000
     atom:    4    charge:    0.8397    magn:    0.0248    constr:    0.0000
     atom:    5    charge:    0.8402    magn:    0.0253    constr:    0.0000
     atom:    6    charge:    0.8428    magn:   -0.0087    constr:    0.0000
     atom:    7    charge:    0.4904    magn:   -0.0017    constr:    0.0000
     atom:    8    charge:    0.4899    magn:   -0.0017    constr:    0.0000
     atom:    9    charge:    0.4910    magn:    0.0000    constr:    0.0000
     atom:   10    charge:    0.4925    magn:   -0.0011    constr:    0.0000
     atom:   11    charge:    0.4920    magn:   -0.0012    constr:    0.0000
     atom:   12    charge:    0.4910    magn:    0.0000    constr:    0.0000
     atom:   13    charge:    6.4556    magn:    0.3584    constr:    0.0000

     total cpu time spent up to now is      151.4 secs

     The total energy is the sum of the following terms:

     one-electron contribution =    -689.42931719 Ry
     hartree contribution      =     348.98993215 Ry
     xc contribution           =     -30.79443893 Ry
     ewald contribution        =     268.46058250 Ry

     total energy              =    -102.76174773 Ry
     Harris-Foulkes estimate   =    -102.76175122 Ry
     estimated scf accuracy    <       0.00001943 Ry

     total magnetization       =     1.00 Bohr mag/cell
     absolute magnetization    =     1.20 Bohr mag/cell

     iteration # 10     ecut=   120.00 Ry     beta=0.70
     CG style diagonalization
     ethr =  5.25E-08,  avg # of iterations =  6.0
 
     Magnetic moment per site:
     atom:    1    charge:    0.8368    magn:    0.0451    constr:    0.0000
     atom:    2    charge:    0.8374    magn:    0.0455    constr:    0.0000
     atom:    3    charge:    0.8428    magn:   -0.0089    constr:    0.0000
     atom:    4    charge:    0.8397    magn:    0.0249    constr:    0.0000
     atom:    5    charge:    0.8402    magn:    0.0252    constr:    0.0000
     atom:    6    charge:    0.8427    magn:   -0.0090    constr:    0.0000
     atom:    7    charge:    0.4904    magn:   -0.0018    constr:    0.0000
     atom:    8    charge:    0.4899    magn:   -0.0018    constr:    0.0000
     atom:    9    charge:    0.4910    magn:    0.0000    constr:    0.0000
     atom:   10    charge:    0.4925    magn:   -0.0011    constr:    0.0000
     atom:   11    charge:    0.4920    magn:   -0.0012    constr:    0.0000
     atom:   12    charge:    0.4910    magn:    0.0000    constr:    0.0000
     atom:   13    charge:    6.4555    magn:    0.3587    constr:    0.0000

     total cpu time spent up to now is      163.4 secs

     The total energy is the sum of the following terms:

     one-electron contribution =    -689.41645124 Ry
     hartree contribution      =     348.98970177 Ry
     xc contribution           =     -30.79450134 Ry
     ewald contribution        =     268.46058250 Ry

     total energy              =    -102.76175192 Ry
     Harris-Foulkes estimate   =    -102.76175114 Ry
     estimated scf accuracy    <       0.00000082 Ry

     total magnetization       =     1.00 Bohr mag/cell
     absolute magnetization    =     1.20 Bohr mag/cell

     iteration # 11     ecut=   120.00 Ry     beta=0.70
     CG style diagonalization
     ethr =  2.22E-09,  avg # of iterations =  7.1

     negative rho (up, down):  8.529E-08 8.621E-08
 
     Magnetic moment per site:
     atom:    1    charge:    0.8369    magn:    0.0454    constr:    0.0000
     atom:    2    charge:    0.8373    magn:    0.0457    constr:    0.0000
     atom:    3    charge:    0.8428    magn:   -0.0091    constr:    0.0000
     atom:    4    charge:    0.8397    magn:    0.0249    constr:    0.0000
     atom:    5    charge:    0.8402    magn:    0.0252    constr:    0.0000
     atom:    6    charge:    0.8428    magn:   -0.0091    constr:    0.0000
     atom:    7    charge:    0.4903    magn:   -0.0018    constr:    0.0000
     atom:    8    charge:    0.4898    magn:   -0.0018    constr:    0.0000
     atom:    9    charge:    0.4910    magn:    0.0001    constr:    0.0000
     atom:   10    charge:    0.4925    magn:   -0.0011    constr:    0.0000
     atom:   11    charge:    0.4920    magn:   -0.0012    constr:    0.0000
     atom:   12    charge:    0.4910    magn:    0.0001    constr:    0.0000
     atom:   13    charge:    6.4557    magn:    0.3586    constr:    0.0000

     total cpu time spent up to now is      177.4 secs

     The total energy is the sum of the following terms:

     one-electron contribution =    -689.41694645 Ry
     hartree contribution      =     348.98997817 Ry
     xc contribution           =     -30.79463822 Ry
     ewald contribution        =     268.46058250 Ry

     total energy              =    -102.76175286 Ry
     Harris-Foulkes estimate   =    -102.76175288 Ry
     estimated scf accuracy    <       0.00000133 Ry

     total magnetization       =     1.00 Bohr mag/cell
     absolute magnetization    =     1.21 Bohr mag/cell

     iteration # 12     ecut=   120.00 Ry     beta=0.70
     CG style diagonalization
     ethr =  2.22E-09,  avg # of iterations =  5.2
 
     Magnetic moment per site:
     atom:    1    charge:    0.8369    magn:    0.0457    constr:    0.0000
     atom:    2    charge:    0.8374    magn:    0.0459    constr:    0.0000
     atom:    3    charge:    0.8428    magn:   -0.0093    constr:    0.0000
     atom:    4    charge:    0.8397    magn:    0.0250    constr:    0.0000
     atom:    5    charge:    0.8402    magn:    0.0252    constr:    0.0000
     atom:    6    charge:    0.8428    magn:   -0.0094    constr:    0.0000
     atom:    7    charge:    0.4903    magn:   -0.0019    constr:    0.0000
     atom:    8    charge:    0.4898    magn:   -0.0019    constr:    0.0000
     atom:    9    charge:    0.4910    magn:    0.0001    constr:    0.0000
     atom:   10    charge:    0.4924    magn:   -0.0012    constr:    0.0000
     atom:   11    charge:    0.4919    magn:   -0.0012    constr:    0.0000
     atom:   12    charge:    0.4910    magn:    0.0001    constr:    0.0000
     atom:   13    charge:    6.4557    magn:    0.3584    constr:    0.0000

     total cpu time spent up to now is      187.9 secs

     The total energy is the sum of the following terms:

     one-electron contribution =    -689.41865576 Ry
     hartree contribution      =     348.99114263 Ry
     xc contribution           =     -30.79478345 Ry
     ewald contribution        =     268.46058250 Ry

     total energy              =    -102.76175316 Ry
     Harris-Foulkes estimate   =    -102.76175308 Ry
     estimated scf accuracy    <       0.00000010 Ry

     total magnetization       =     1.00 Bohr mag/cell
     absolute magnetization    =     1.21 Bohr mag/cell

     iteration # 13     ecut=   120.00 Ry     beta=0.70
     CG style diagonalization
     ethr =  2.65E-10,  avg # of iterations =  7.7
 
     Magnetic moment per site:
     atom:    1    charge:    0.8369    magn:    0.0457    constr:    0.0000
     atom:    2    charge:    0.8374    magn:    0.0459    constr:    0.0000
     atom:    3    charge:    0.8428    magn:   -0.0094    constr:    0.0000
     atom:    4    charge:    0.8397    magn:    0.0251    constr:    0.0000
     atom:    5    charge:    0.8402    magn:    0.0252    constr:    0.0000
     atom:    6    charge:    0.8428    magn:   -0.0094    constr:    0.0000
     atom:    7    charge:    0.4903    magn:   -0.0019    constr:    0.0000
     atom:    8    charge:    0.4898    magn:   -0.0019    constr:    0.0000
     atom:    9    charge:    0.4910    magn:    0.0001    constr:    0.0000
     atom:   10    charge:    0.4925    magn:   -0.0012    constr:    0.0000
     atom:   11    charge:    0.4920    magn:   -0.0012    constr:    0.0000
     atom:   12    charge:    0.4910    magn:    0.0001    constr:    0.0000
     atom:   13    charge:    6.4557    magn:    0.3583    constr:    0.0000

     total cpu time spent up to now is      202.9 secs

     The total energy is the sum of the following terms:

     one-electron contribution =    -689.41584934 Ry
     hartree contribution      =     348.99039850 Ry
     xc contribution           =     -30.79473890 Ry
     ewald contribution        =     268.46058250 Ry

     total energy              =    -102.76175328 Ry
     Harris-Foulkes estimate   =    -102.76175329 Ry
     estimated scf accuracy    <       0.00000009 Ry

     total magnetization       =     1.00 Bohr mag/cell
     absolute magnetization    =     1.21 Bohr mag/cell

     iteration # 14     ecut=   120.00 Ry     beta=0.70
     CG style diagonalization
     ethr =  2.34E-10,  avg # of iterations =  5.8
 
     Magnetic moment per site:
     atom:    1    charge:    0.8369    magn:    0.0458    constr:    0.0000
     atom:    2    charge:    0.8374    magn:    0.0459    constr:    0.0000
     atom:    3    charge:    0.8428    magn:   -0.0094    constr:    0.0000
     atom:    4    charge:    0.8397    magn:    0.0251    constr:    0.0000
     atom:    5    charge:    0.8402    magn:    0.0252    constr:    0.0000
     atom:    6    charge:    0.8428    magn:   -0.0094    constr:    0.0000
     atom:    7    charge:    0.4903    magn:   -0.0019    constr:    0.0000
     atom:    8    charge:    0.4898    magn:   -0.0019    constr:    0.0000
     atom:    9    charge:    0.4910    magn:    0.0001    constr:    0.0000
     atom:   10    charge:    0.4925    magn:   -0.0012    constr:    0.0000
     atom:   11    charge:    0.4920    magn:   -0.0012    constr:    0.0000
     atom:   12    charge:    0.4910    magn:    0.0001    constr:    0.0000
     atom:   13    charge:    6.4558    magn:    0.3583    constr:    0.0000

     total cpu time spent up to now is      214.5 secs

     The total energy is the sum of the following terms:

     one-electron contribution =    -689.41696904 Ry
     hartree contribution      =     348.99004197 Ry
     xc contribution           =     -30.79471316 Ry
     ewald contribution        =     268.46058250 Ry

     total energy              =    -102.76175330 Ry
     Harris-Foulkes estimate   =    -102.76175330 Ry
     estimated scf accuracy    <       0.00000002 Ry

     total magnetization       =     1.00 Bohr mag/cell
     absolute magnetization    =     1.21 Bohr mag/cell

     iteration # 15     ecut=   120.00 Ry     beta=0.70
     CG style diagonalization
     ethr =  4.61E-11,  avg # of iterations =  4.8
 
     Magnetic moment per site:
     atom:    1    charge:    0.8369    magn:    0.0458    constr:    0.0000
     atom:    2    charge:    0.8374    magn:    0.0459    constr:    0.0000
     atom:    3    charge:    0.8428    magn:   -0.0094    constr:    0.0000
     atom:    4    charge:    0.8397    magn:    0.0251    constr:    0.0000
     atom:    5    charge:    0.8402    magn:    0.0252    constr:    0.0000
     atom:    6    charge:    0.8428    magn:   -0.0094    constr:    0.0000
     atom:    7    charge:    0.4903    magn:   -0.0019    constr:    0.0000
     atom:    8    charge:    0.4898    magn:   -0.0019    constr:    0.0000
     atom:    9    charge:    0.4910    magn:    0.0001    constr:    0.0000
     atom:   10    charge:    0.4925    magn:   -0.0012    constr:    0.0000
     atom:   11    charge:    0.4920    magn:   -0.0012    constr:    0.0000
     atom:   12    charge:    0.4910    magn:    0.0001    constr:    0.0000
     atom:   13    charge:    6.4558    magn:    0.3582    constr:    0.0000

     total cpu time spent up to now is      224.3 secs

     The total energy is the sum of the following terms:

     one-electron contribution =    -689.41770723 Ry
     hartree contribution      =     348.99005629 Ry
     xc contribution           =     -30.79472084 Ry
     ewald contribution        =     268.46058250 Ry

     total energy              =    -102.76175330 Ry
     Harris-Foulkes estimate   =    -102.76175330 Ry
     estimated scf accuracy    <          2.3E-09 Ry

     total magnetization       =     1.00 Bohr mag/cell
     absolute magnetization    =     1.21 Bohr mag/cell

     iteration # 16     ecut=   120.00 Ry     beta=0.70
     CG style diagonalization
     ethr =  6.09E-12,  avg # of iterations =  5.2
 
     Magnetic moment per site:
     atom:    1    charge:    0.8369    magn:    0.0458    constr:    0.0000
     atom:    2    charge:    0.8374    magn:    0.0459    constr:    0.0000
     atom:    3    charge:    0.8428    magn:   -0.0094    constr:    0.0000
     atom:    4    charge:    0.8397    magn:    0.0251    constr:    0.0000
     atom:    5    charge:    0.8402    magn:    0.0252    constr:    0.0000
     atom:    6    charge:    0.8428    magn:   -0.0094    constr:    0.0000
     atom:    7    charge:    0.4903    magn:   -0.0019    constr:    0.0000
     atom:    8    charge:    0.4898    magn:   -0.0019    constr:    0.0000
     atom:    9    charge:    0.4910    magn:    0.0001    constr:    0.0000
     atom:   10    charge:    0.4925    magn:   -0.0012    constr:    0.0000
     atom:   11    charge:    0.4920    magn:   -0.0012    constr:    0.0000
     atom:   12    charge:    0.4910    magn:    0.0001    constr:    0.0000
     atom:   13    charge:    6.4558    magn:    0.3582    constr:    0.0000

     total cpu time spent up to now is      234.9 secs

     The total energy is the sum of the following terms:

     one-electron contribution =    -689.41773569 Ry
     hartree contribution      =     348.99008944 Ry
     xc contribution           =     -30.79472323 Ry
     ewald contribution        =     268.46058250 Ry

     total energy              =    -102.76175330 Ry
     Harris-Foulkes estimate   =    -102.76175330 Ry
     estimated scf accuracy    <          9.3E-10 Ry

     total magnetization       =     1.00 Bohr mag/cell
     absolute magnetization    =     1.21 Bohr mag/cell

     iteration # 17     ecut=   120.00 Ry     beta=0.70
     CG style diagonalization
     ethr =  2.51E-12,  avg # of iterations =  4.2
 
     Magnetic moment per site:
     atom:    1    charge:    0.8369    magn:    0.0458    constr:    0.0000
     atom:    2    charge:    0.8374    magn:    0.0459    constr:    0.0000
     atom:    3    charge:    0.8428    magn:   -0.0094    constr:    0.0000
     atom:    4    charge:    0.8397    magn:    0.0251    constr:    0.0000
     atom:    5    charge:    0.8402    magn:    0.0252    constr:    0.0000
     atom:    6    charge:    0.8428    magn:   -0.0094    constr:    0.0000
     atom:    7    charge:    0.4903    magn:   -0.0019    constr:    0.0000
     atom:    8    charge:    0.4898    magn:   -0.0019    constr:    0.0000
     atom:    9    charge:    0.4910    magn:    0.0001    constr:    0.0000
     atom:   10    charge:    0.4925    magn:   -0.0012    constr:    0.0000
     atom:   11    charge:    0.4920    magn:   -0.0012    constr:    0.0000
     atom:   12    charge:    0.4910    magn:    0.0001    constr:    0.0000
     atom:   13    charge:    6.4558    magn:    0.3582    constr:    0.0000

     total cpu time spent up to now is      243.6 secs

     The total energy is the sum of the following terms:

     one-electron contribution =    -689.41767174 Ry
     hartree contribution      =     348.99009636 Ry
     xc contribution           =     -30.79472382 Ry
     ewald contribution        =     268.46058250 Ry

     total energy              =    -102.76175330 Ry
     Harris-Foulkes estimate   =    -102.76175330 Ry
     estimated scf accuracy    <          5.3E-10 Ry

     total magnetization       =     1.00 Bohr mag/cell
     absolute magnetization    =     1.21 Bohr mag/cell

     iteration # 18     ecut=   120.00 Ry     beta=0.70
     CG style diagonalization
     ethr =  1.43E-12,  avg # of iterations =  6.8
 
     Magnetic moment per site:
     atom:    1    charge:    0.8369    magn:    0.0458    constr:    0.0000
     atom:    2    charge:    0.8374    magn:    0.0458    constr:    0.0000
     atom:    3    charge:    0.8428    magn:   -0.0094    constr:    0.0000
     atom:    4    charge:    0.8397    magn:    0.0251    constr:    0.0000
     atom:    5    charge:    0.8402    magn:    0.0252    constr:    0.0000
     atom:    6    charge:    0.8428    magn:   -0.0094    constr:    0.0000
     atom:    7    charge:    0.4903    magn:   -0.0019    constr:    0.0000
     atom:    8    charge:    0.4898    magn:   -0.0019    constr:    0.0000
     atom:    9    charge:    0.4910    magn:    0.0001    constr:    0.0000
     atom:   10    charge:    0.4925    magn:   -0.0012    constr:    0.0000
     atom:   11    charge:    0.4920    magn:   -0.0012    constr:    0.0000
     atom:   12    charge:    0.4910    magn:    0.0001    constr:    0.0000
     atom:   13    charge:    6.4558    magn:    0.3582    constr:    0.0000

     total cpu time spent up to now is      257.0 secs

     The total energy is the sum of the following terms:

     one-electron contribution =    -689.41765339 Ry
     hartree contribution      =     348.99008116 Ry
     xc contribution           =     -30.79472271 Ry
     ewald contribution        =     268.46058250 Ry

     total energy              =    -102.76175330 Ry
     Harris-Foulkes estimate   =    -102.76175330 Ry
     estimated scf accuracy    <          2.3E-10 Ry

     total magnetization       =     1.00 Bohr mag/cell
     absolute magnetization    =     1.21 Bohr mag/cell

     iteration # 19     ecut=   120.00 Ry     beta=0.70
     CG style diagonalization
     ethr =  6.09E-13,  avg # of iterations =  4.4
 
     Magnetic moment per site:
     atom:    1    charge:    0.8369    magn:    0.0458    constr:    0.0000
     atom:    2    charge:    0.8374    magn:    0.0458    constr:    0.0000
     atom:    3    charge:    0.8428    magn:   -0.0094    constr:    0.0000
     atom:    4    charge:    0.8397    magn:    0.0251    constr:    0.0000
     atom:    5    charge:    0.8402    magn:    0.0252    constr:    0.0000
     atom:    6    charge:    0.8428    magn:   -0.0094    constr:    0.0000
     atom:    7    charge:    0.4903    magn:   -0.0019    constr:    0.0000
     atom:    8    charge:    0.4898    magn:   -0.0019    constr:    0.0000
     atom:    9    charge:    0.4910    magn:    0.0001    constr:    0.0000
     atom:   10    charge:    0.4925    magn:   -0.0012    constr:    0.0000
     atom:   11    charge:    0.4920    magn:   -0.0012    constr:    0.0000
     atom:   12    charge:    0.4910    magn:    0.0001    constr:    0.0000
     atom:   13    charge:    6.4558    magn:    0.3583    constr:    0.0000

     total cpu time spent up to now is      266.0 secs

     The total energy is the sum of the following terms:

     one-electron contribution =    -689.41769120 Ry
     hartree contribution      =     348.99007351 Ry
     xc contribution           =     -30.79472174 Ry
     ewald contribution        =     268.46058250 Ry

     total energy              =    -102.76175330 Ry
     Harris-Foulkes estimate   =    -102.76175330 Ry
     estimated scf accuracy    <          6.3E-11 Ry

     total magnetization       =     1.00 Bohr mag/cell
     absolute magnetization    =     1.21 Bohr mag/cell

     iteration # 20     ecut=   120.00 Ry     beta=0.70
     CG style diagonalization
     ethr =  1.70E-13,  avg # of iterations =  5.2
 
     Magnetic moment per site:
     atom:    1    charge:    0.8369    magn:    0.0458    constr:    0.0000
     atom:    2    charge:    0.8374    magn:    0.0458    constr:    0.0000
     atom:    3    charge:    0.8428    magn:   -0.0094    constr:    0.0000
     atom:    4    charge:    0.8397    magn:    0.0251    constr:    0.0000
     atom:    5    charge:    0.8402    magn:    0.0252    constr:    0.0000
     atom:    6    charge:    0.8428    magn:   -0.0094    constr:    0.0000
     atom:    7    charge:    0.4903    magn:   -0.0019    constr:    0.0000
     atom:    8    charge:    0.4898    magn:   -0.0019    constr:    0.0000
     atom:    9    charge:    0.4910    magn:    0.0001    constr:    0.0000
     atom:   10    charge:    0.4925    magn:   -0.0012    constr:    0.0000
     atom:   11    charge:    0.4920    magn:   -0.0012    constr:    0.0000
     atom:   12    charge:    0.4910    magn:    0.0001    constr:    0.0000
     atom:   13    charge:    6.4558    magn:    0.3583    constr:    0.0000

     total cpu time spent up to now is      276.5 secs

     The total energy is the sum of the following terms:

     one-electron contribution =    -689.41770647 Ry
     hartree contribution      =     348.99007839 Ry
     xc contribution           =     -30.79472194 Ry
     ewald contribution        =     268.46058250 Ry

     total energy              =    -102.76175330 Ry
     Harris-Foulkes estimate   =    -102.76175330 Ry
     estimated scf accuracy    <          8.6E-12 Ry

     total magnetization       =     1.00 Bohr mag/cell
     absolute magnetization    =     1.21 Bohr mag/cell

     iteration # 21     ecut=   120.00 Ry     beta=0.70
     CG style diagonalization
     ethr =  1.00E-13,  avg # of iterations =  4.0
 
     Magnetic moment per site:
     atom:    1    charge:    0.8369    magn:    0.0458    constr:    0.0000
     atom:    2    charge:    0.8374    magn:    0.0458    constr:    0.0000
     atom:    3    charge:    0.8428    magn:   -0.0094    constr:    0.0000
     atom:    4    charge:    0.8397    magn:    0.0251    constr:    0.0000
     atom:    5    charge:    0.8402    magn:    0.0252    constr:    0.0000
     atom:    6    charge:    0.8428    magn:   -0.0094    constr:    0.0000
     atom:    7    charge:    0.4903    magn:   -0.0019    constr:    0.0000
     atom:    8    charge:    0.4898    magn:   -0.0019    constr:    0.0000
     atom:    9    charge:    0.4910    magn:    0.0001    constr:    0.0000
     atom:   10    charge:    0.4925    magn:   -0.0012    constr:    0.0000
     atom:   11    charge:    0.4920    magn:   -0.0012    constr:    0.0000
     atom:   12    charge:    0.4910    magn:    0.0001    constr:    0.0000
     atom:   13    charge:    6.4558    magn:    0.3583    constr:    0.0000

     total cpu time spent up to now is      284.9 secs

     The total energy is the sum of the following terms:

     one-electron contribution =    -689.41769622 Ry
     hartree contribution      =     348.99007938 Ry
     xc contribution           =     -30.79472205 Ry
     ewald contribution        =     268.46058250 Ry

     total energy              =    -102.76175331 Ry
     Harris-Foulkes estimate   =    -102.76175330 Ry
     estimated scf accuracy    <          2.7E-12 Ry

     total magnetization       =     1.00 Bohr mag/cell
     absolute magnetization    =     1.21 Bohr mag/cell

     iteration # 22     ecut=   120.00 Ry     beta=0.70
     CG style diagonalization
     ethr =  1.00E-13,  avg # of iterations =  3.3
 
     Magnetic moment per site:
     atom:    1    charge:    0.8369    magn:    0.0458    constr:    0.0000
     atom:    2    charge:    0.8374    magn:    0.0458    constr:    0.0000
     atom:    3    charge:    0.8428    magn:   -0.0094    constr:    0.0000
     atom:    4    charge:    0.8397    magn:    0.0251    constr:    0.0000
     atom:    5    charge:    0.8402    magn:    0.0252    constr:    0.0000
     atom:    6    charge:    0.8428    magn:   -0.0094    constr:    0.0000
     atom:    7    charge:    0.4903    magn:   -0.0019    constr:    0.0000
     atom:    8    charge:    0.4898    magn:   -0.0019    constr:    0.0000
     atom:    9    charge:    0.4910    magn:    0.0001    constr:    0.0000
     atom:   10    charge:    0.4925    magn:   -0.0012    constr:    0.0000
     atom:   11    charge:    0.4920    magn:   -0.0012    constr:    0.0000
     atom:   12    charge:    0.4910    magn:    0.0001    constr:    0.0000
     atom:   13    charge:    6.4558    magn:    0.3583    constr:    0.0000

     total cpu time spent up to now is      291.9 secs

     End of self-consistent calculation

 ------ SPIN UP ------------


          k = 0.0000 0.0000 0.0000 (797775 PWs)   bands (ev):

   -21.2102 -18.6138 -18.3984 -18.2058 -14.7017 -14.6921 -12.6805 -10.9327
   -10.8795 -10.1519  -9.9299  -9.1994  -8.0737  -8.0706  -7.2086  -6.6062
    -6.4387  -6.2318  -5.9637  -1.3557  -1.0048  -0.1409   0.1691   0.2096
     0.2151   0.2456   0.3473   0.3845   0.5152   0.5381   0.5758   0.5827
     0.5985   0.6014   0.6475   0.6823   0.6903   0.7123   0.7165   0.7335

     occupation numbers 
     1.0000   1.0000   1.0000   1.0000   1.0000   1.0000   1.0000   1.0000
     1.0000   1.0000   1.0000   1.0000   1.0000   1.0000   1.0000   1.0000
     1.0000   1.0000   1.0000   0.0000   0.0000   0.0000   0.0000   0.0000
     0.0000   0.0000   0.0000   0.0000   0.0000   0.0000   0.0000   0.0000
     0.0000   0.0000   0.0000   0.0000   0.0000   0.0000   0.0000   0.0000

 ------ SPIN DOWN ----------


          k = 0.0000 0.0000 0.0000 (797775 PWs)   bands (ev):

   -21.0529 -18.3206 -18.1603 -18.0177 -14.6108 -14.5661 -12.6457 -10.8664
   -10.8131 -10.0829  -9.9234  -8.7985  -8.0447  -8.0238  -6.5526  -6.4750
    -6.2909  -5.8396  -5.4681  -0.8345  -0.7671  -0.1303   0.1878   0.2152
     0.2182   0.2510   0.3478   0.3916   0.5246   0.5398   0.5795   0.5831
     0.5989   0.6038   0.6515   0.6894   0.6909   0.7128   0.7172   0.7340

     occupation numbers 
     1.0000   1.0000   1.0000   1.0000   1.0000   1.0000   1.0000   1.0000
     1.0000   1.0000   1.0000   1.0000   1.0000   1.0000   1.0000   1.0000
     1.0000   1.0000   0.0000   0.0000   0.0000   0.0000   0.0000   0.0000
     0.0000   0.0000   0.0000   0.0000   0.0000   0.0000   0.0000   0.0000
     0.0000   0.0000   0.0000   0.0000   0.0000   0.0000   0.0000   0.0000

     highest occupied, lowest unoccupied level (ev):    -5.8396   -5.4681

     The total energy is the sum of the following terms:

     one-electron contribution =    -689.41769431 Ry
     hartree contribution      =     348.99008058 Ry
     xc contribution           =     -30.79472208 Ry
     ewald contribution        =     268.46058250 Ry

!    total energy              =    -102.76175331 Ry
     Harris-Foulkes estimate   =    -102.76175331 Ry
     estimated scf accuracy    <          6.1E-13 Ry

     The total energy is the sum of the following terms:

     one-electron contribution =    -689.41769431 Ry
     hartree contribution      =     348.99008058 Ry
     xc contribution           =     -30.79472208 Ry
     ewald contribution        =     268.46058250 Ry

     total magnetization       =     1.00 Bohr mag/cell
     absolute magnetization    =     1.21 Bohr mag/cell

     convergence has been achieved in  22 iterations
 
     Using Hirshfeld
        Amplitude [Ry a.u.] :  1.1821E-01
        Acceptor Fragment start :          13
        Acceptor Fragment end   :          13
        Donor Fragment start :           1
        Donor Fragment end   :          12
 
 
     Using Hirshfeld
        Amplitude [Ry a.u.] :  1.1821E-01
        Acceptor Fragment start :          13
        Acceptor Fragment end   :          13
        Donor Fragment start :           1
        Donor Fragment end   :          12
 
     E field correction              : -0.2600650012285211E+01 Ry    
 
     Donor charge                    :      0.6603848129471999 e     
     Acceptor charge                 :     -0.3396327547344162 e     
     Difference of charges           :      1.0000175676816170 e     
 
     epcdft_thr                      :  0.1000000000000000E-05 e     
     Surplus(+)/deficit(-) charge    :  0.1756768161698119E-04 e     
 
     -----------------------------------------------
 
                      SCF converged but...
 
     electron localization condition NOT satisfied
     restarting scf with different applied potential
 
     New field Amp                   :  0.1172114585902947E+00 Ry    
     charge density from previous step
 
     Using Hirshfeld
        Amplitude [Ry a.u.] :  1.1721E-01
        Acceptor Fragment start :          13
        Acceptor Fragment end   :          13
        Donor Fragment start :           1
        Donor Fragment end   :          12
 

     total cpu time spent up to now is      312.1 secs

     per-process dynamical memory:    69.4 Mb

     Self-consistent Calculation

     iteration #  1     ecut=   120.00 Ry     beta=0.70
     CG style diagonalization
     c_bands:  4 eigenvalues not converged
     ethr =  1.00E-13,  avg # of iterations = 29.6
 
     Magnetic moment per site:
     atom:    1    charge:    0.8372    magn:    0.0455    constr:    0.0000
     atom:    2    charge:    0.8377    magn:    0.0455    constr:    0.0000
     atom:    3    charge:    0.8428    magn:   -0.0094    constr:    0.0000
     atom:    4    charge:    0.8400    magn:    0.0248    constr:    0.0000
     atom:    5    charge:    0.8405    magn:    0.0248    constr:    0.0000
     atom:    6    charge:    0.8428    magn:   -0.0094    constr:    0.0000
     atom:    7    charge:    0.4903    magn:   -0.0019    constr:    0.0000
     atom:    8    charge:    0.4898    magn:   -0.0019    constr:    0.0000
     atom:    9    charge:    0.4910    magn:    0.0001    constr:    0.0000
     atom:   10    charge:    0.4925    magn:   -0.0012    constr:    0.0000
     atom:   11    charge:    0.4920    magn:   -0.0012    constr:    0.0000
     atom:   12    charge:    0.4910    magn:    0.0001    constr:    0.0000
     atom:   13    charge:    6.4490    magn:    0.3646    constr:    0.0000

     total cpu time spent up to now is      365.9 secs

     The total energy is the sum of the following terms:

     one-electron contribution =    -689.47581804 Ry
     hartree contribution      =     349.01494527 Ry
     xc contribution           =     -30.79428080 Ry
     ewald contribution        =     268.46058250 Ry

     total energy              =    -102.78371409 Ry
     Harris-Foulkes estimate   =    -102.78376427 Ry
     estimated scf accuracy    <       0.00007062 Ry

     total magnetization       =     1.00 Bohr mag/cell
     absolute magnetization    =     1.21 Bohr mag/cell

     iteration #  2     ecut=   120.00 Ry     beta=0.70
     CG style diagonalization
     ethr =  1.91E-07,  avg # of iterations =  4.3
 
     Magnetic moment per site:
     atom:    1    charge:    0.8369    magn:    0.0457    constr:    0.0000
     atom:    2    charge:    0.8374    magn:    0.0457    constr:    0.0000
     atom:    3    charge:    0.8428    magn:   -0.0094    constr:    0.0000
     atom:    4    charge:    0.8397    magn:    0.0250    constr:    0.0000
     atom:    5    charge:    0.8402    magn:    0.0251    constr:    0.0000
     atom:    6    charge:    0.8428    magn:   -0.0094    constr:    0.0000
     atom:    7    charge:    0.4904    magn:   -0.0019    constr:    0.0000
     atom:    8    charge:    0.4899    magn:   -0.0019    constr:    0.0000
     atom:    9    charge:    0.4910    magn:    0.0001    constr:    0.0000
     atom:   10    charge:    0.4925    magn:   -0.0012    constr:    0.0000
     atom:   11    charge:    0.4920    magn:   -0.0012    constr:    0.0000
     atom:   12    charge:    0.4910    magn:    0.0001    constr:    0.0000
     atom:   13    charge:    6.4542    magn:    0.3604    constr:    0.0000

     total cpu time spent up to now is      374.7 secs

     The total energy is the sum of the following terms:

     one-electron contribution =    -689.33317924 Ry
     hartree contribution      =     348.99505282 Ry
     xc contribution           =     -30.79460749 Ry
     ewald contribution        =     268.46058250 Ry

     total energy              =    -102.78366079 Ry
     Harris-Foulkes estimate   =    -102.78386732 Ry
     estimated scf accuracy    <       0.00088893 Ry

     total magnetization       =     1.00 Bohr mag/cell
     absolute magnetization    =     1.21 Bohr mag/cell

     iteration #  3     ecut=   120.00 Ry     beta=0.70
     CG style diagonalization
     ethr =  1.91E-07,  avg # of iterations =  3.8
 
     Magnetic moment per site:
     atom:    1    charge:    0.8368    magn:    0.0457    constr:    0.0000
     atom:    2    charge:    0.8373    magn:    0.0457    constr:    0.0000
     atom:    3    charge:    0.8428    magn:   -0.0094    constr:    0.0000
     atom:    4    charge:    0.8397    magn:    0.0250    constr:    0.0000
     atom:    5    charge:    0.8402    magn:    0.0250    constr:    0.0000
     atom:    6    charge:    0.8428    magn:   -0.0094    constr:    0.0000
     atom:    7    charge:    0.4904    magn:   -0.0019    constr:    0.0000
     atom:    8    charge:    0.4899    magn:   -0.0019    constr:    0.0000
     atom:    9    charge:    0.4910    magn:    0.0001    constr:    0.0000
     atom:   10    charge:    0.4925    magn:   -0.0012    constr:    0.0000
     atom:   11    charge:    0.4920    magn:   -0.0012    constr:    0.0000
     atom:   12    charge:    0.4910    magn:    0.0001    constr:    0.0000
     atom:   13    charge:    6.4543    magn:    0.3605    constr:    0.0000

     total cpu time spent up to now is      382.7 secs

     The total energy is the sum of the following terms:

     one-electron contribution =    -689.44472490 Ry
     hartree contribution      =     348.99470365 Ry
     xc contribution           =     -30.79459182 Ry
     ewald contribution        =     268.46058250 Ry

     total energy              =    -102.78375557 Ry
     Harris-Foulkes estimate   =    -102.78375575 Ry
     estimated scf accuracy    <       0.00000037 Ry

     total magnetization       =     1.00 Bohr mag/cell
     absolute magnetization    =     1.21 Bohr mag/cell

     iteration #  4     ecut=   120.00 Ry     beta=0.70
     CG style diagonalization
     ethr =  1.00E-09,  avg # of iterations =  6.8
 
     Magnetic moment per site:
     atom:    1    charge:    0.8369    magn:    0.0457    constr:    0.0000
     atom:    2    charge:    0.8374    magn:    0.0457    constr:    0.0000
     atom:    3    charge:    0.8428    magn:   -0.0094    constr:    0.0000
     atom:    4    charge:    0.8397    magn:    0.0250    constr:    0.0000
     atom:    5    charge:    0.8402    magn:    0.0250    constr:    0.0000
     atom:    6    charge:    0.8428    magn:   -0.0094    constr:    0.0000
     atom:    7    charge:    0.4904    magn:   -0.0019    constr:    0.0000
     atom:    8    charge:    0.4899    magn:   -0.0019    constr:    0.0000
     atom:    9    charge:    0.4910    magn:    0.0001    constr:    0.0000
     atom:   10    charge:    0.4925    magn:   -0.0012    constr:    0.0000
     atom:   11    charge:    0.4920    magn:   -0.0012    constr:    0.0000
     atom:   12    charge:    0.4910    magn:    0.0001    constr:    0.0000
     atom:   13    charge:    6.4543    magn:    0.3607    constr:    0.0000

     total cpu time spent up to now is      396.0 secs

     The total energy is the sum of the following terms:

     one-electron contribution =    -689.44946666 Ry
     hartree contribution      =     348.99594205 Ry
     xc contribution           =     -30.79466253 Ry
     ewald contribution        =     268.46058250 Ry

     total energy              =    -102.78375593 Ry
     Harris-Foulkes estimate   =    -102.78375605 Ry
     estimated scf accuracy    <       0.00000049 Ry

     total magnetization       =     1.00 Bohr mag/cell
     absolute magnetization    =     1.21 Bohr mag/cell

     iteration #  5     ecut=   120.00 Ry     beta=0.70
     CG style diagonalization
     ethr =  1.00E-09,  avg # of iterations =  3.1
 
     Magnetic moment per site:
     atom:    1    charge:    0.8369    magn:    0.0457    constr:    0.0000
     atom:    2    charge:    0.8374    magn:    0.0457    constr:    0.0000
     atom:    3    charge:    0.8428    magn:   -0.0094    constr:    0.0000
     atom:    4    charge:    0.8397    magn:    0.0250    constr:    0.0000
     atom:    5    charge:    0.8402    magn:    0.0250    constr:    0.0000
     atom:    6    charge:    0.8428    magn:   -0.0094    constr:    0.0000
     atom:    7    charge:    0.4904    magn:   -0.0019    constr:    0.0000
     atom:    8    charge:    0.4899    magn:   -0.0019    constr:    0.0000
     atom:    9    charge:    0.4910    magn:    0.0001    constr:    0.0000
     atom:   10    charge:    0.4925    magn:   -0.0012    constr:    0.0000
     atom:   11    charge:    0.4920    magn:   -0.0012    constr:    0.0000
     atom:   12    charge:    0.4910    magn:    0.0001    constr:    0.0000
     atom:   13    charge:    6.4542    magn:    0.3607    constr:    0.0000

     total cpu time spent up to now is      402.7 secs

     The total energy is the sum of the following terms:

     one-electron contribution =    -689.44740644 Ry
     hartree contribution      =     348.99623616 Ry
     xc contribution           =     -30.79466266 Ry
     ewald contribution        =     268.46058250 Ry

     total energy              =    -102.78375595 Ry
     Harris-Foulkes estimate   =    -102.78375597 Ry
     estimated scf accuracy    <       0.00000010 Ry

     total magnetization       =     1.00 Bohr mag/cell
     absolute magnetization    =     1.21 Bohr mag/cell

     iteration #  6     ecut=   120.00 Ry     beta=0.70
     CG style diagonalization
     ethr =  2.63E-10,  avg # of iterations =  3.3
 
     Magnetic moment per site:
     atom:    1    charge:    0.8369    magn:    0.0457    constr:    0.0000
     atom:    2    charge:    0.8374    magn:    0.0457    constr:    0.0000
     atom:    3    charge:    0.8428    magn:   -0.0094    constr:    0.0000
     atom:    4    charge:    0.8397    magn:    0.0250    constr:    0.0000
     atom:    5    charge:    0.8402    magn:    0.0250    constr:    0.0000
     atom:    6    charge:    0.8428    magn:   -0.0094    constr:    0.0000
     atom:    7    charge:    0.4904    magn:   -0.0019    constr:    0.0000
     atom:    8    charge:    0.4899    magn:   -0.0019    constr:    0.0000
     atom:    9    charge:    0.4910    magn:    0.0001    constr:    0.0000
     atom:   10    charge:    0.4925    magn:   -0.0012    constr:    0.0000
     atom:   11    charge:    0.4920    magn:   -0.0012    constr:    0.0000
     atom:   12    charge:    0.4910    magn:    0.0001    constr:    0.0000
     atom:   13    charge:    6.4542    magn:    0.3607    constr:    0.0000

     total cpu time spent up to now is      409.9 secs

     The total energy is the sum of the following terms:

     one-electron contribution =    -689.44621901 Ry
     hartree contribution      =     348.99621160 Ry
     xc contribution           =     -30.79464828 Ry
     ewald contribution        =     268.46058250 Ry

     total energy              =    -102.78375596 Ry
     Harris-Foulkes estimate   =    -102.78375596 Ry
     estimated scf accuracy    <       0.00000001 Ry

     total magnetization       =     1.00 Bohr mag/cell
     absolute magnetization    =     1.21 Bohr mag/cell

     iteration #  7     ecut=   120.00 Ry     beta=0.70
     CG style diagonalization
     ethr =  2.83E-11,  avg # of iterations =  5.0
 
     Magnetic moment per site:
     atom:    1    charge:    0.8369    magn:    0.0456    constr:    0.0000
     atom:    2    charge:    0.8374    magn:    0.0457    constr:    0.0000
     atom:    3    charge:    0.8428    magn:   -0.0094    constr:    0.0000
     atom:    4    charge:    0.8397    magn:    0.0250    constr:    0.0000
     atom:    5    charge:    0.8402    magn:    0.0250    constr:    0.0000
     atom:    6    charge:    0.8428    magn:   -0.0094    constr:    0.0000
     atom:    7    charge:    0.4904    magn:   -0.0019    constr:    0.0000
     atom:    8    charge:    0.4899    magn:   -0.0019    constr:    0.0000
     atom:    9    charge:    0.4910    magn:    0.0001    constr:    0.0000
     atom:   10    charge:    0.4925    magn:   -0.0012    constr:    0.0000
     atom:   11    charge:    0.4920    magn:   -0.0012    constr:    0.0000
     atom:   12    charge:    0.4910    magn:    0.0001    constr:    0.0000
     atom:   13    charge:    6.4542    magn:    0.3608    constr:    0.0000

     total cpu time spent up to now is      420.1 secs

     The total energy is the sum of the following terms:

     one-electron contribution =    -689.44603304 Ry
     hartree contribution      =     348.99618481 Ry
     xc contribution           =     -30.79463587 Ry
     ewald contribution        =     268.46058250 Ry

     total energy              =    -102.78375596 Ry
     Harris-Foulkes estimate   =    -102.78375596 Ry
     estimated scf accuracy    <          3.2E-09 Ry

     total magnetization       =     1.00 Bohr mag/cell
     absolute magnetization    =     1.21 Bohr mag/cell

     iteration #  8     ecut=   120.00 Ry     beta=0.70
     CG style diagonalization
     ethr =  8.63E-12,  avg # of iterations =  4.1
 
     Magnetic moment per site:
     atom:    1    charge:    0.8369    magn:    0.0456    constr:    0.0000
     atom:    2    charge:    0.8374    magn:    0.0457    constr:    0.0000
     atom:    3    charge:    0.8428    magn:   -0.0094    constr:    0.0000
     atom:    4    charge:    0.8397    magn:    0.0250    constr:    0.0000
     atom:    5    charge:    0.8402    magn:    0.0250    constr:    0.0000
     atom:    6    charge:    0.8428    magn:   -0.0094    constr:    0.0000
     atom:    7    charge:    0.4904    magn:   -0.0019    constr:    0.0000
     atom:    8    charge:    0.4899    magn:   -0.0019    constr:    0.0000
     atom:    9    charge:    0.4910    magn:    0.0001    constr:    0.0000
     atom:   10    charge:    0.4925    magn:   -0.0012    constr:    0.0000
     atom:   11    charge:    0.4920    magn:   -0.0012    constr:    0.0000
     atom:   12    charge:    0.4910    magn:    0.0001    constr:    0.0000
     atom:   13    charge:    6.4542    magn:    0.3608    constr:    0.0000

     total cpu time spent up to now is      428.7 secs

     The total energy is the sum of the following terms:

     one-electron contribution =    -689.44596059 Ry
     hartree contribution      =     348.99621560 Ry
     xc contribution           =     -30.79463781 Ry
     ewald contribution        =     268.46058250 Ry

     total energy              =    -102.78375596 Ry
     Harris-Foulkes estimate   =    -102.78375596 Ry
     estimated scf accuracy    <          1.5E-10 Ry

     total magnetization       =     1.00 Bohr mag/cell
     absolute magnetization    =     1.21 Bohr mag/cell

     iteration #  9     ecut=   120.00 Ry     beta=0.70
     CG style diagonalization
     ethr =  4.00E-13,  avg # of iterations =  6.3
 
     Magnetic moment per site:
     atom:    1    charge:    0.8369    magn:    0.0456    constr:    0.0000
     atom:    2    charge:    0.8374    magn:    0.0457    constr:    0.0000
     atom:    3    charge:    0.8428    magn:   -0.0094    constr:    0.0000
     atom:    4    charge:    0.8397    magn:    0.0250    constr:    0.0000
     atom:    5    charge:    0.8402    magn:    0.0250    constr:    0.0000
     atom:    6    charge:    0.8428    magn:   -0.0094    constr:    0.0000
     atom:    7    charge:    0.4904    magn:   -0.0019    constr:    0.0000
     atom:    8    charge:    0.4899    magn:   -0.0019    constr:    0.0000
     atom:    9    charge:    0.4910    magn:    0.0001    constr:    0.0000
     atom:   10    charge:    0.4925    magn:   -0.0012    constr:    0.0000
     atom:   11    charge:    0.4920    magn:   -0.0012    constr:    0.0000
     atom:   12    charge:    0.4910    magn:    0.0001    constr:    0.0000
     atom:   13    charge:    6.4542    magn:    0.3608    constr:    0.0000

     total cpu time spent up to now is      441.3 secs

     The total energy is the sum of the following terms:

     one-electron contribution =    -689.44590346 Ry
     hartree contribution      =     348.99620818 Ry
     xc contribution           =     -30.79463694 Ry
     ewald contribution        =     268.46058250 Ry

     total energy              =    -102.78375596 Ry
     Harris-Foulkes estimate   =    -102.78375596 Ry
     estimated scf accuracy    <          2.1E-11 Ry

     total magnetization       =     1.00 Bohr mag/cell
     absolute magnetization    =     1.21 Bohr mag/cell

     iteration # 10     ecut=   120.00 Ry     beta=0.70
     CG style diagonalization
     ethr =  1.00E-13,  avg # of iterations =  4.2
 
     Magnetic moment per site:
     atom:    1    charge:    0.8369    magn:    0.0456    constr:    0.0000
     atom:    2    charge:    0.8374    magn:    0.0457    constr:    0.0000
     atom:    3    charge:    0.8428    magn:   -0.0094    constr:    0.0000
     atom:    4    charge:    0.8397    magn:    0.0250    constr:    0.0000
     atom:    5    charge:    0.8402    magn:    0.0250    constr:    0.0000
     atom:    6    charge:    0.8428    magn:   -0.0094    constr:    0.0000
     atom:    7    charge:    0.4904    magn:   -0.0019    constr:    0.0000
     atom:    8    charge:    0.4899    magn:   -0.0019    constr:    0.0000
     atom:    9    charge:    0.4910    magn:    0.0001    constr:    0.0000
     atom:   10    charge:    0.4925    magn:   -0.0012    constr:    0.0000
     atom:   11    charge:    0.4920    magn:   -0.0012    constr:    0.0000
     atom:   12    charge:    0.4910    magn:    0.0001    constr:    0.0000
     atom:   13    charge:    6.4542    magn:    0.3608    constr:    0.0000

     total cpu time spent up to now is      449.9 secs

     The total energy is the sum of the following terms:

     one-electron contribution =    -689.44592632 Ry
     hartree contribution      =     348.99621567 Ry
     xc contribution           =     -30.79463709 Ry
     ewald contribution        =     268.46058250 Ry

     total energy              =    -102.78375596 Ry
     Harris-Foulkes estimate   =    -102.78375596 Ry
     estimated scf accuracy    <          1.3E-11 Ry

     total magnetization       =     1.00 Bohr mag/cell
     absolute magnetization    =     1.21 Bohr mag/cell

     iteration # 11     ecut=   120.00 Ry     beta=0.70
     CG style diagonalization
     ethr =  1.00E-13,  avg # of iterations =  3.4
 
     Magnetic moment per site:
     atom:    1    charge:    0.8369    magn:    0.0456    constr:    0.0000
     atom:    2    charge:    0.8374    magn:    0.0457    constr:    0.0000
     atom:    3    charge:    0.8428    magn:   -0.0094    constr:    0.0000
     atom:    4    charge:    0.8397    magn:    0.0250    constr:    0.0000
     atom:    5    charge:    0.8402    magn:    0.0250    constr:    0.0000
     atom:    6    charge:    0.8428    magn:   -0.0094    constr:    0.0000
     atom:    7    charge:    0.4904    magn:   -0.0019    constr:    0.0000
     atom:    8    charge:    0.4899    magn:   -0.0019    constr:    0.0000
     atom:    9    charge:    0.4910    magn:    0.0001    constr:    0.0000
     atom:   10    charge:    0.4925    magn:   -0.0012    constr:    0.0000
     atom:   11    charge:    0.4920    magn:   -0.0012    constr:    0.0000
     atom:   12    charge:    0.4910    magn:    0.0001    constr:    0.0000
     atom:   13    charge:    6.4542    magn:    0.3608    constr:    0.0000

     total cpu time spent up to now is      457.3 secs

     The total energy is the sum of the following terms:

     one-electron contribution =    -689.44591554 Ry
     hartree contribution      =     348.99621737 Ry
     xc contribution           =     -30.79463712 Ry
     ewald contribution        =     268.46058250 Ry

     total energy              =    -102.78375596 Ry
     Harris-Foulkes estimate   =    -102.78375596 Ry
     estimated scf accuracy    <          2.2E-12 Ry

     total magnetization       =     1.00 Bohr mag/cell
     absolute magnetization    =     1.21 Bohr mag/cell

     iteration # 12     ecut=   120.00 Ry     beta=0.70
     CG style diagonalization
     ethr =  1.00E-13,  avg # of iterations =  3.2
 
     Magnetic moment per site:
     atom:    1    charge:    0.8369    magn:    0.0456    constr:    0.0000
     atom:    2    charge:    0.8374    magn:    0.0457    constr:    0.0000
     atom:    3    charge:    0.8428    magn:   -0.0094    constr:    0.0000
     atom:    4    charge:    0.8397    magn:    0.0250    constr:    0.0000
     atom:    5    charge:    0.8402    magn:    0.0250    constr:    0.0000
     atom:    6    charge:    0.8428    magn:   -0.0094    constr:    0.0000
     atom:    7    charge:    0.4904    magn:   -0.0019    constr:    0.0000
     atom:    8    charge:    0.4899    magn:   -0.0019    constr:    0.0000
     atom:    9    charge:    0.4910    magn:    0.0001    constr:    0.0000
     atom:   10    charge:    0.4925    magn:   -0.0012    constr:    0.0000
     atom:   11    charge:    0.4920    magn:   -0.0012    constr:    0.0000
     atom:   12    charge:    0.4910    magn:    0.0001    constr:    0.0000
     atom:   13    charge:    6.4542    magn:    0.3608    constr:    0.0000

     total cpu time spent up to now is      464.1 secs

     End of self-consistent calculation

 ------ SPIN UP ------------


          k = 0.0000 0.0000 0.0000 (797775 PWs)   bands (ev):

   -21.2156 -18.6192 -18.4041 -18.2123 -14.7078 -14.6982 -12.6872 -10.9396
   -10.8852 -10.1579  -9.9371  -9.2049  -8.0802  -8.0772  -7.2150  -6.6101
    -6.4419  -6.2372  -5.9695  -1.3606  -1.0115  -0.1430   0.1685   0.2088
     0.2142   0.2448   0.3473   0.3842   0.5153   0.5379   0.5750   0.5820
     0.5981   0.6011   0.6468   0.6814   0.6902   0.7121   0.7162   0.7331

     occupation numbers 
     1.0000   1.0000   1.0000   1.0000   1.0000   1.0000   1.0000   1.0000
     1.0000   1.0000   1.0000   1.0000   1.0000   1.0000   1.0000   1.0000
     1.0000   1.0000   1.0000   0.0000   0.0000   0.0000   0.0000   0.0000
     0.0000   0.0000   0.0000   0.0000   0.0000   0.0000   0.0000   0.0000
     0.0000   0.0000   0.0000   0.0000   0.0000   0.0000   0.0000   0.0000

 ------ SPIN DOWN ----------


          k = 0.0000 0.0000 0.0000 (797775 PWs)   bands (ev):

   -21.0590 -18.3263 -18.1669 -18.0211 -14.6173 -14.5729 -12.6525 -10.8736
   -10.8191 -10.0893  -9.9305  -8.8056  -8.0513  -8.0306  -6.5565  -6.4783
    -6.2932  -5.8456  -5.4732  -0.8420  -0.7751  -0.1323   0.1871   0.2143
     0.2174   0.2502   0.3478   0.3913   0.5247   0.5395   0.5787   0.5823
     0.5985   0.6035   0.6508   0.6887   0.6906   0.7126   0.7169   0.7337

     occupation numbers 
     1.0000   1.0000   1.0000   1.0000   1.0000   1.0000   1.0000   1.0000
     1.0000   1.0000   1.0000   1.0000   1.0000   1.0000   1.0000   1.0000
     1.0000   1.0000   0.0000   0.0000   0.0000   0.0000   0.0000   0.0000
     0.0000   0.0000   0.0000   0.0000   0.0000   0.0000   0.0000   0.0000
     0.0000   0.0000   0.0000   0.0000   0.0000   0.0000   0.0000   0.0000

     highest occupied, lowest unoccupied level (ev):    -5.8456   -5.4732

     The total energy is the sum of the following terms:

     one-electron contribution =    -689.44591435 Ry
     hartree contribution      =     348.99621269 Ry
     xc contribution           =     -30.79463681 Ry
     ewald contribution        =     268.46058250 Ry

!    total energy              =    -102.78375596 Ry
     Harris-Foulkes estimate   =    -102.78375596 Ry
     estimated scf accuracy    <          3.3E-13 Ry

     The total energy is the sum of the following terms:

     one-electron contribution =    -689.44591435 Ry
     hartree contribution      =     348.99621269 Ry
     xc contribution           =     -30.79463681 Ry
     ewald contribution        =     268.46058250 Ry

     total magnetization       =     1.00 Bohr mag/cell
     absolute magnetization    =     1.21 Bohr mag/cell

     convergence has been achieved in  12 iterations
 
     Using Hirshfeld
        Amplitude [Ry a.u.] :  1.1721E-01
        Acceptor Fragment start :          13
        Acceptor Fragment end   :          13
        Donor Fragment start :           1
        Donor Fragment end   :          12
 
 
     Using Hirshfeld
        Amplitude [Ry a.u.] :  1.1721E-01
        Acceptor Fragment start :          13
        Acceptor Fragment end   :          13
        Donor Fragment start :           1
        Donor Fragment end   :          12
 
     E field correction              : -0.2579277074957595E+01 Ry    
 
     Donor charge                    :      0.6576469246763885 e     
     Acceptor charge                 :     -0.3370209518381886 e     
     Difference of charges           :      0.9946678765145798 e     
 
     epcdft_thr                      :  0.1000000000000000E-05 e     
     Surplus(+)/deficit(-) charge    : -0.5332123485420226E-02 e     
 
     -----------------------------------------------
 
                      SCF converged but...
 
     electron localization condition NOT satisfied
     restarting scf with different applied potential
 
     New field Amp                   :  0.1182081747219239E+00 Ry    
     charge density from previous step
 
     Using Hirshfeld
        Amplitude [Ry a.u.] :  1.1821E-01
        Acceptor Fragment start :          13
        Acceptor Fragment end   :          13
        Donor Fragment start :           1
        Donor Fragment end   :          12
 

     total cpu time spent up to now is      484.1 secs

     per-process dynamical memory:    69.4 Mb

     Self-consistent Calculation

     iteration #  1     ecut=   120.00 Ry     beta=0.70
     CG style diagonalization
     c_bands:  4 eigenvalues not converged
     ethr =  1.00E-13,  avg # of iterations = 29.4
 
     Magnetic moment per site:
     atom:    1    charge:    0.8366    magn:    0.0460    constr:    0.0000
     atom:    2    charge:    0.8371    magn:    0.0460    constr:    0.0000
     atom:    3    charge:    0.8428    magn:   -0.0094    constr:    0.0000
     atom:    4    charge:    0.8394    magn:    0.0253    constr:    0.0000
     atom:    5    charge:    0.8399    magn:    0.0253    constr:    0.0000
     atom:    6    charge:    0.8428    magn:   -0.0094    constr:    0.0000
     atom:    7    charge:    0.4903    magn:   -0.0019    constr:    0.0000
     atom:    8    charge:    0.4898    magn:   -0.0019    constr:    0.0000
[...]

     total magnetization       =     1.00 Bohr mag/cell
     absolute magnetization    =     1.21 Bohr mag/cell

     iteration #  4     ecut=   120.00 Ry     beta=0.70
     CG style diagonalization
     ethr =  9.08E-10,  avg # of iterations =  6.8
 
     Magnetic moment per site:
     atom:    1    charge:    0.8369    magn:    0.0458    constr:    0.0000
     atom:    2    charge:    0.8374    magn:    0.0458    constr:    0.0000
     atom:    3    charge:    0.8428    magn:   -0.0094    constr:    0.0000
     atom:    4    charge:    0.8397    magn:    0.0251    constr:    0.0000
     atom:    5    charge:    0.8402    magn:    0.0251    constr:    0.0000
     atom:    6    charge:    0.8428    magn:   -0.0094    constr:    0.0000
     atom:    7    charge:    0.4903    magn:   -0.0019    constr:    0.0000
     atom:    8    charge:    0.4898    magn:   -0.0019    constr:    0.0000
     atom:    9    charge:    0.4910    magn:    0.0001    constr:    0.0000
     atom:   10    charge:    0.4924    magn:   -0.0012    constr:    0.0000
     atom:   11    charge:    0.4919    magn:   -0.0012    constr:    0.0000
     atom:   12    charge:    0.4910    magn:    0.0001    constr:    0.0000
     atom:   13    charge:    6.4557    magn:    0.3584    constr:    0.0000

     total cpu time spent up to now is      567.9 secs

     The total energy is the sum of the following terms:

     one-electron contribution =    -689.41394840 Ry
     hartree contribution      =     348.99044653 Ry
     xc contribution           =     -30.79469956 Ry
     ewald contribution        =     268.46058250 Ry

     total energy              =    -102.76182551 Ry
     Harris-Foulkes estimate   =    -102.76182564 Ry
     estimated scf accuracy    <       0.00000055 Ry

     total magnetization       =     1.00 Bohr mag/cell
     absolute magnetization    =     1.21 Bohr mag/cell

     iteration #  5     ecut=   120.00 Ry     beta=0.70
     CG style diagonalization
     ethr =  9.08E-10,  avg # of iterations =  3.1
 
     Magnetic moment per site:
     atom:    1    charge:    0.8369    magn:    0.0458    constr:    0.0000
     atom:    2    charge:    0.8374    magn:    0.0458    constr:    0.0000
     atom:    3    charge:    0.8428    magn:   -0.0094    constr:    0.0000
     atom:    4    charge:    0.8397    magn:    0.0251    constr:    0.0000
     atom:    5    charge:    0.8402    magn:    0.0251    constr:    0.0000
     atom:    6    charge:    0.8428    magn:   -0.0094    constr:    0.0000
     atom:    7    charge:    0.4903    magn:   -0.0019    constr:    0.0000
     atom:    8    charge:    0.4898    magn:   -0.0019    constr:    0.0000
     atom:    9    charge:    0.4910    magn:    0.0001    constr:    0.0000
     atom:   10    charge:    0.4925    magn:   -0.0012    constr:    0.0000
     atom:   11    charge:    0.4920    magn:   -0.0012    constr:    0.0000
     atom:   12    charge:    0.4910    magn:    0.0001    constr:    0.0000
     atom:   13    charge:    6.4557    magn:    0.3584    constr:    0.0000

     total cpu time spent up to now is      574.6 secs

     The total energy is the sum of the following terms:

     one-electron contribution =    -689.41607590 Ry
     hartree contribution      =     348.99014335 Ry
     xc contribution           =     -30.79469568 Ry
     ewald contribution        =     268.46058250 Ry

     total energy              =    -102.76182554 Ry
     Harris-Foulkes estimate   =    -102.76182556 Ry
     estimated scf accuracy    <       0.00000012 Ry

     total magnetization       =     1.00 Bohr mag/cell
     absolute magnetization    =     1.21 Bohr mag/cell

     iteration #  6     ecut=   120.00 Ry     beta=0.70
     CG style diagonalization
     ethr =  3.30E-10,  avg # of iterations =  3.1
 
     Magnetic moment per site:
     atom:    1    charge:    0.8369    magn:    0.0458    constr:    0.0000
     atom:    2    charge:    0.8374    magn:    0.0458    constr:    0.0000
     atom:    3    charge:    0.8428    magn:   -0.0094    constr:    0.0000
     atom:    4    charge:    0.8397    magn:    0.0251    constr:    0.0000
     atom:    5    charge:    0.8402    magn:    0.0251    constr:    0.0000
     atom:    6    charge:    0.8428    magn:   -0.0094    constr:    0.0000
     atom:    7    charge:    0.4903    magn:   -0.0019    constr:    0.0000
     atom:    8    charge:    0.4898    magn:   -0.0019    constr:    0.0000
     atom:    9    charge:    0.4910    magn:    0.0001    constr:    0.0000
     atom:   10    charge:    0.4925    magn:   -0.0012    constr:    0.0000
     atom:   11    charge:    0.4920    magn:   -0.0012    constr:    0.0000
     atom:   12    charge:    0.4910    magn:    0.0001    constr:    0.0000
     atom:   13    charge:    6.4557    magn:    0.3583    constr:    0.0000

     total cpu time spent up to now is      581.3 secs

     The total energy is the sum of the following terms:

     one-electron contribution =    -689.41711818 Ry
     hartree contribution      =     348.99008763 Ry
     xc contribution           =     -30.79470786 Ry
     ewald contribution        =     268.46058250 Ry

     total energy              =    -102.76182555 Ry
     Harris-Foulkes estimate   =    -102.76182555 Ry
     estimated scf accuracy    <       0.00000002 Ry

     total magnetization       =     1.00 Bohr mag/cell
     absolute magnetization    =     1.21 Bohr mag/cell

     iteration #  7     ecut=   120.00 Ry     beta=0.70
     CG style diagonalization
     ethr =  6.64E-11,  avg # of iterations =  4.4
 
     Magnetic moment per site:
     atom:    1    charge:    0.8369    magn:    0.0458    constr:    0.0000
     atom:    2    charge:    0.8374    magn:    0.0458    constr:    0.0000
     atom:    3    charge:    0.8428    magn:   -0.0094    constr:    0.0000
     atom:    4    charge:    0.8397    magn:    0.0251    constr:    0.0000
     atom:    5    charge:    0.8402    magn:    0.0252    constr:    0.0000
     atom:    6    charge:    0.8428    magn:   -0.0094    constr:    0.0000
     atom:    7    charge:    0.4903    magn:   -0.0019    constr:    0.0000
     atom:    8    charge:    0.4898    magn:   -0.0019    constr:    0.0000
     atom:    9    charge:    0.4910    magn:    0.0001    constr:    0.0000
     atom:   10    charge:    0.4925    magn:   -0.0012    constr:    0.0000
     atom:   11    charge:    0.4920    magn:   -0.0012    constr:    0.0000
     atom:   12    charge:    0.4910    magn:    0.0001    constr:    0.0000
     atom:   13    charge:    6.4558    magn:    0.3583    constr:    0.0000

     total cpu time spent up to now is      590.5 secs

     The total energy is the sum of the following terms:

     one-electron contribution =    -689.41759172 Ry
     hartree contribution      =     348.99010403 Ry
     xc contribution           =     -30.79472034 Ry
     ewald contribution        =     268.46058250 Ry

     total energy              =    -102.76182555 Ry
     Harris-Foulkes estimate   =    -102.76182555 Ry
     estimated scf accuracy    <          4.0E-09 Ry

     total magnetization       =     1.00 Bohr mag/cell
     absolute magnetization    =     1.21 Bohr mag/cell

     iteration #  8     ecut=   120.00 Ry     beta=0.70
     CG style diagonalization
     ethr =  1.09E-11,  avg # of iterations =  4.6
 
     Magnetic moment per site:
     atom:    1    charge:    0.8369    magn:    0.0458    constr:    0.0000
     atom:    2    charge:    0.8374    magn:    0.0458    constr:    0.0000
     atom:    3    charge:    0.8428    magn:   -0.0094    constr:    0.0000
     atom:    4    charge:    0.8397    magn:    0.0251    constr:    0.0000
     atom:    5    charge:    0.8402    magn:    0.0252    constr:    0.0000
     atom:    6    charge:    0.8428    magn:   -0.0094    constr:    0.0000
     atom:    7    charge:    0.4903    magn:   -0.0019    constr:    0.0000
     atom:    8    charge:    0.4898    magn:   -0.0019    constr:    0.0000
     atom:    9    charge:    0.4910    magn:    0.0001    constr:    0.0000
     atom:   10    charge:    0.4925    magn:   -0.0012    constr:    0.0000
     atom:   11    charge:    0.4920    magn:   -0.0012    constr:    0.0000
     atom:   12    charge:    0.4910    magn:    0.0001    constr:    0.0000
     atom:   13    charge:    6.4558    magn:    0.3583    constr:    0.0000

     total cpu time spent up to now is      600.0 secs

     The total energy is the sum of the following terms:

     one-electron contribution =    -689.41778014 Ry
     hartree contribution      =     348.99010338 Ry
     xc contribution           =     -30.79472112 Ry
     ewald contribution        =     268.46058250 Ry

     total energy              =    -102.76182555 Ry
     Harris-Foulkes estimate   =    -102.76182555 Ry
     estimated scf accuracy    <          1.7E-10 Ry

     total magnetization       =     1.00 Bohr mag/cell
     absolute magnetization    =     1.21 Bohr mag/cell

     iteration #  9     ecut=   120.00 Ry     beta=0.70
     CG style diagonalization
     ethr =  4.59E-13,  avg # of iterations =  6.5
 
     Magnetic moment per site:
     atom:    1    charge:    0.8369    magn:    0.0458    constr:    0.0000
     atom:    2    charge:    0.8374    magn:    0.0458    constr:    0.0000
     atom:    3    charge:    0.8428    magn:   -0.0094    constr:    0.0000
     atom:    4    charge:    0.8397    magn:    0.0251    constr:    0.0000
     atom:    5    charge:    0.8402    magn:    0.0252    constr:    0.0000
     atom:    6    charge:    0.8428    magn:   -0.0094    constr:    0.0000
     atom:    7    charge:    0.4903    magn:   -0.0019    constr:    0.0000
     atom:    8    charge:    0.4898    magn:   -0.0019    constr:    0.0000
     atom:    9    charge:    0.4910    magn:    0.0001    constr:    0.0000
     atom:   10    charge:    0.4925    magn:   -0.0012    constr:    0.0000
     atom:   11    charge:    0.4920    magn:   -0.0012    constr:    0.0000
     atom:   12    charge:    0.4910    magn:    0.0001    constr:    0.0000
     atom:   13    charge:    6.4558    magn:    0.3583    constr:    0.0000

     total cpu time spent up to now is      612.9 secs

     The total energy is the sum of the following terms:

     one-electron contribution =    -689.41779965 Ry
     hartree contribution      =     348.99010229 Ry
     xc contribution           =     -30.79472149 Ry
     ewald contribution        =     268.46058250 Ry

     total energy              =    -102.76182555 Ry
     Harris-Foulkes estimate   =    -102.76182555 Ry
     estimated scf accuracy    <          3.8E-11 Ry

     total magnetization       =     1.00 Bohr mag/cell
     absolute magnetization    =     1.21 Bohr mag/cell

     iteration # 10     ecut=   120.00 Ry     beta=0.70
     CG style diagonalization
     ethr =  1.02E-13,  avg # of iterations =  4.3
 
     Magnetic moment per site:
     atom:    1    charge:    0.8369    magn:    0.0458    constr:    0.0000
     atom:    2    charge:    0.8374    magn:    0.0458    constr:    0.0000
     atom:    3    charge:    0.8428    magn:   -0.0094    constr:    0.0000
     atom:    4    charge:    0.8397    magn:    0.0251    constr:    0.0000
     atom:    5    charge:    0.8402    magn:    0.0252    constr:    0.0000
     atom:    6    charge:    0.8428    magn:   -0.0094    constr:    0.0000
     atom:    7    charge:    0.4903    magn:   -0.0019    constr:    0.0000
     atom:    8    charge:    0.4898    magn:   -0.0019    constr:    0.0000
     atom:    9    charge:    0.4910    magn:    0.0001    constr:    0.0000
     atom:   10    charge:    0.4925    magn:   -0.0012    constr:    0.0000
     atom:   11    charge:    0.4920    magn:   -0.0012    constr:    0.0000
     atom:   12    charge:    0.4910    magn:    0.0001    constr:    0.0000
     atom:   13    charge:    6.4558    magn:    0.3583    constr:    0.0000

     total cpu time spent up to now is      621.8 secs

     The total energy is the sum of the following terms:

     one-electron contribution =    -689.41778573 Ry
     hartree contribution      =     348.99010189 Ry
     xc contribution           =     -30.79472166 Ry
     ewald contribution        =     268.46058250 Ry

     total energy              =    -102.76182555 Ry
     Harris-Foulkes estimate   =    -102.76182555 Ry
     estimated scf accuracy    <          6.6E-12 Ry

     total magnetization       =     1.00 Bohr mag/cell
     absolute magnetization    =     1.21 Bohr mag/cell

     iteration # 11     ecut=   120.00 Ry     beta=0.70
     CG style diagonalization
     ethr =  1.00E-13,  avg # of iterations =  3.1
 
     Magnetic moment per site:
     atom:    1    charge:    0.8369    magn:    0.0458    constr:    0.0000
     atom:    2    charge:    0.8374    magn:    0.0458    constr:    0.0000
     atom:    3    charge:    0.8428    magn:   -0.0094    constr:    0.0000
     atom:    4    charge:    0.8397    magn:    0.0251    constr:    0.0000
     atom:    5    charge:    0.8402    magn:    0.0252    constr:    0.0000
     atom:    6    charge:    0.8428    magn:   -0.0094    constr:    0.0000
     atom:    7    charge:    0.4903    magn:   -0.0019    constr:    0.0000
     atom:    8    charge:    0.4898    magn:   -0.0019    constr:    0.0000
     atom:    9    charge:    0.4910    magn:    0.0001    constr:    0.0000
     atom:   10    charge:    0.4925    magn:   -0.0012    constr:    0.0000
     atom:   11    charge:    0.4920    magn:   -0.0012    constr:    0.0000
     atom:   12    charge:    0.4910    magn:    0.0001    constr:    0.0000
     atom:   13    charge:    6.4558    magn:    0.3583    constr:    0.0000

     total cpu time spent up to now is      628.6 secs

     End of self-consistent calculation

 ------ SPIN UP ------------


          k = 0.0000 0.0000 0.0000 (797775 PWs)   bands (ev):

   -21.2102 -18.6138 -18.3984 -18.2058 -14.7017 -14.6921 -12.6805 -10.9327
   -10.8795 -10.1519  -9.9299  -9.1994  -8.0737  -8.0706  -7.2087  -6.6062
    -6.4387  -6.2318  -5.9637  -1.3557  -1.0048  -0.1409   0.1690   0.2096
     0.2151   0.2456   0.3473   0.3845   0.5152   0.5381   0.5758   0.5827
     0.5985   0.6014   0.6475   0.6823   0.6903   0.7123   0.7165   0.7335

     occupation numbers 
     1.0000   1.0000   1.0000   1.0000   1.0000   1.0000   1.0000   1.0000
     1.0000   1.0000   1.0000   1.0000   1.0000   1.0000   1.0000   1.0000
     1.0000   1.0000   1.0000   0.0000   0.0000   0.0000   0.0000   0.0000
     0.0000   0.0000   0.0000   0.0000   0.0000   0.0000   0.0000   0.0000
     0.0000   0.0000   0.0000   0.0000   0.0000   0.0000   0.0000   0.0000

 ------ SPIN DOWN ----------


          k = 0.0000 0.0000 0.0000 (797775 PWs)   bands (ev):

   -21.0529 -18.3206 -18.1603 -18.0177 -14.6109 -14.5661 -12.6457 -10.8664
   -10.8131 -10.0829  -9.9234  -8.7985  -8.0447  -8.0239  -6.5526  -6.4750
    -6.2909  -5.8396  -5.4681  -0.8345  -0.7671  -0.1303   0.1878   0.2152
     0.2182   0.2510   0.3478   0.3916   0.5246   0.5397   0.5795   0.5831
     0.5989   0.6038   0.6515   0.6894   0.6909   0.7128   0.7172   0.7340

     occupation numbers 
     1.0000   1.0000   1.0000   1.0000   1.0000   1.0000   1.0000   1.0000
     1.0000   1.0000   1.0000   1.0000   1.0000   1.0000   1.0000   1.0000
     1.0000   1.0000   0.0000   0.0000   0.0000   0.0000   0.0000   0.0000
     0.0000   0.0000   0.0000   0.0000   0.0000   0.0000   0.0000   0.0000
     0.0000   0.0000   0.0000   0.0000   0.0000   0.0000   0.0000   0.0000

     highest occupied, lowest unoccupied level (ev):    -5.8396   -5.4681

     The total energy is the sum of the following terms:

     one-electron contribution =    -689.41778451 Ry
     hartree contribution      =     348.99009810 Ry
     xc contribution           =     -30.79472164 Ry
     ewald contribution        =     268.46058250 Ry

!    total energy              =    -102.76182555 Ry
     Harris-Foulkes estimate   =    -102.76182555 Ry
     estimated scf accuracy    <          9.7E-13 Ry

     The total energy is the sum of the following terms:

     one-electron contribution =    -689.41778451 Ry
     hartree contribution      =     348.99009810 Ry
     xc contribution           =     -30.79472164 Ry
     ewald contribution        =     268.46058250 Ry

     total magnetization       =     1.00 Bohr mag/cell
     absolute magnetization    =     1.21 Bohr mag/cell

     convergence has been achieved in  11 iterations
 
     Using Hirshfeld
        Amplitude [Ry a.u.] :  1.1821E-01
        Acceptor Fragment start :          13
        Acceptor Fragment end   :          13
        Donor Fragment start :           1
        Donor Fragment end   :          12
 
 
     Using Hirshfeld
        Amplitude [Ry a.u.] :  1.1821E-01
        Acceptor Fragment start :          13
        Acceptor Fragment end   :          13
        Donor Fragment start :           1
        Donor Fragment end   :          12
 
     E field correction              : -0.2600579799369720E+01 Ry    
 
     Donor charge                    :      0.6603759829463662 e     
     Acceptor charge                 :     -0.3396243936147476 e     
     Difference of charges           :      1.0000003765611183 e     

     Writing output data file left.save
 
     init_run     :     49.78s CPU     49.78s WALL (       1 calls)
     electrons    :    557.86s CPU    557.86s WALL (       3 calls)
     update_pot   :      1.88s CPU      1.88s WALL (       2 calls)

     Called by init_run:
     wfcinit      :      7.87s CPU      7.87s WALL (       1 calls)
     potinit      :      2.38s CPU      2.38s WALL (       1 calls)

     Called by electrons:
     c_bands      :    445.18s CPU    445.18s WALL (      45 calls)
     sum_band     :     22.30s CPU     22.30s WALL (      45 calls)
     v_of_rho     :     43.94s CPU     43.94s WALL (      48 calls)
     v_h          :      0.84s CPU      0.85s WALL (      48 calls)
     v_xc         :     43.09s CPU     43.09s WALL (      48 calls)
     mix_rho      :      2.43s CPU      2.43s WALL (      45 calls)

     Called by c_bands:
     init_us_2    :      1.24s CPU      1.24s WALL (     182 calls)
     rcgdiagg     :    393.59s CPU    393.59s WALL (      96 calls)
     wfcrot       :     53.74s CPU     53.74s WALL (      92 calls)

     Called by sum_band:

     Called by *cgdiagg:
     h_psi        :    394.05s CPU    394.05s WALL (   17719 calls)
     rdiaghg      :      6.69s CPU      6.69s WALL (      92 calls)
     rdiaghg:chol :      0.52s CPU      0.52s WALL (      92 calls)
     rdiaghg:inve :      0.09s CPU      0.09s WALL (      92 calls)
     rdiaghg:para :      0.50s CPU      0.50s WALL (     184 calls)

     Called by h_psi:
     h_psi:vloc   :    340.25s CPU    340.25s WALL (   17719 calls)
     h_psi:vnl    :     53.30s CPU     53.30s WALL (   17719 calls)
     add_vuspsi   :     32.45s CPU     32.46s WALL (   17719 calls)

     General routines
     calbec       :     27.00s CPU     27.04s WALL (   35346 calls)
     fft          :     36.62s CPU     36.62s WALL (    2870 calls)
     fftw         :    316.68s CPU    316.70s WALL (   41070 calls)
 
     Parallel routines
     fft_scatter  :    126.93s CPU    127.00s WALL (   43940 calls)
 
     PWSCF        : 11m52.25s CPU    11m52.25s WALL

 
   This run was terminated on:  14:59: 9  24Aug2015            

=------------------------------------------------------------------------------=
   JOB DONE.
=------------------------------------------------------------------------------=
2015-08-24 14:59:26.742 (INFO ) [0xfff8f1bc410] CET-20400-31731-128:1297010:ibm.runjob.client.Job: exited with status 0
2015-08-24 14:59:26.743 (INFO ) [0xfff8f1bc410] tatu.runjob.client: task exited with status 0
2015-08-24 14:59:26.752 (INFO ) [0xfff8f1bc410] tatu.runjob.client: monitor completed
2015-08-24 14:59:26.743 (INFO ) [0xfff9ee234e0] 9457:tatu.runjob.monitor: monitor terminating
