2015-08-24 17:53:22.709 (INFO ) [0xfffb0bfc410] ibm.runjob.AbstractOptions: using properties file /bgsys/local/etc/bg.properties
2015-08-24 17:53:23.222 (INFO ) [0xfffb0bfc410] ibm.runjob.AbstractOptions: max open file descriptors: 65536
2015-08-24 17:53:23.222 (INFO ) [0xfffb0bfc410] ibm.runjob.AbstractOptions: core file limit: 18446744073709551615
2015-08-24 17:53:23.225 (INFO ) [0xfffb0bfc410] 28728:tatu.runjob.client: scheduler job id is 568493
2015-08-24 17:53:23.231 (INFO ) [0xfffb06a34e0] 28728:tatu.runjob.monitor: monitor started
2015-08-24 17:53:29.089 (INFO ) [0xfffb06a34e0] 28728:tatu.runjob.monitor: task record 1240256 created
2015-08-24 17:53:29.089 (INFO ) [0xfffb0bfc410] CET-62040-73371-128:28728:ibm.runjob.client.options.Parser: set local socket to runjob_mux from properties file
2015-08-24 17:53:32.612 (INFO ) [0xfffb0bfc410] CET-62040-73371-128:1298176:ibm.runjob.client.Job: job 1298176 started

     Program PWSCF v.5.1.1 starts on 24Aug2015 at 17:53:32 

     This program is part of the open-source Quantum ESPRESSO suite
     for quantum simulation of materials; please cite
         "P. Giannozzi et al., J. Phys.:Condens. Matter 21 395502 (2009);
          URL http://www.quantum-espresso.org", 
     in publications or presentations arising from this work. More details at
     http://www.quantum-espresso.org/quote

     Parallel version (MPI & OpenMP), running on    1024 processor cores
     Number of MPI processes:              1024
     Threads/MPI process:                     1
     R & G space division:  proc/nbgrp/npool/nimage =    1024
     Waiting for input...
     Reading input from standard input

     Current dimensions of program PWSCF are:
     Max number of different atomic species (ntypx) = 10
     Max number of k-points (npk) =  40000
     Max angular momentum in pseudopotentials (lmaxx) =  3
               file C.pbe-mt_fhi.UPF: wavefunction(s)  4f renormalized
               file H.pbe-mt_fhi.UPF: wavefunction(s)  2p 4f renormalized
               file Cl.pbe-mt_fhi.UPF: wavefunction(s)  4f renormalized

     gamma-point specific algorithms are used
     Message from routine setup:
     the system is metallic, specify occupations

     Subspace diagonalization in iterative solution of the eigenvalue problem:
     scalapack distributed-memory algorithm (size of sub-group: 22* 22 procs)

 
     Parallelization info
     --------------------
     sticks:   dense  smooth     PW     G-vecs:    dense   smooth      PW
     Min          52      52     11                 9332     9332    1136
     Max          54      54     14                 9394     9394    1202
     Sum       54553   54553  13637              9587919  9587919 1198487
     Tot       27277   27277   6819
 
     Generating pointlists ...
     new r_m :   0.0224 (alat units)  0.8450 (a.u.) for type    1
     new r_m :   0.0224 (alat units)  0.8450 (a.u.) for type    2
     new r_m :   0.0635 (alat units)  2.4011 (a.u.) for type    3


     bravais-lattice index     =            1
     lattice parameter (alat)  =      37.7945  a.u.
     unit-cell volume          =   53986.6767 (a.u.)^3
     number of atoms/cell      =           13
     number of atomic types    =            3
     number of electrons       =        37.00 (up:  19.00, down:  18.00)
     number of Kohn-Sham states=           40
     kinetic-energy cutoff     =     120.0000  Ry
     charge density cutoff     =     480.0000  Ry
     convergence threshold     =      1.0E-12
     mixing beta               =       0.7000
     number of iterations used =            8  plain     mixing
     Exchange-correlation      = PBE ( 1  4  3  4 0 0)
     Assuming isolated system, Martyna-Tuckerman method


     celldm(1)=  37.794523  celldm(2)=   0.000000  celldm(3)=   0.000000
     celldm(4)=   0.000000  celldm(5)=   0.000000  celldm(6)=   0.000000

     crystal axes: (cart. coord. in units of alat)
               a(1) = (   1.000000   0.000000   0.000000 )  
               a(2) = (   0.000000   1.000000   0.000000 )  
               a(3) = (   0.000000   0.000000   1.000000 )  

     reciprocal axes: (cart. coord. in units 2 pi/alat)
               b(1) = (  1.000000  0.000000  0.000000 )  
               b(2) = (  0.000000  1.000000  0.000000 )  
               b(3) = (  0.000000  0.000000  1.000000 )  


     PseudoPot. # 1 for  C read from file:
     ./C.pbe-mt_fhi.UPF
     MD5 check sum: 058ca341f9d6d5327d9962fd88a91b65
     Pseudo is Norm-conserving, Zval =  4.0
     Generated using FHI98PP, converted with fhi2upf.x v.5.0.2
     Using radial grid of  461 points,  3 beta functions with: 
                l(1) =   0
                l(2) =   1
                l(3) =   3

     PseudoPot. # 2 for  H read from file:
     ./H.pbe-mt_fhi.UPF
     MD5 check sum: a19bd5488733b3d98581df861506e80d
     Pseudo is Norm-conserving, Zval =  1.0
     Generated using FHI98PP, converted with fhi2upf.x v.5.0.2
     Using radial grid of  387 points,  3 beta functions with: 
                l(1) =   0
                l(2) =   1
                l(3) =   3

     PseudoPot. # 3 for Cl read from file:
     ./Cl.pbe-mt_fhi.UPF
     MD5 check sum: 2690b95bbfe21454a1a3af22474751ef
     Pseudo is Norm-conserving, Zval =  7.0
     Generated using FHI98PP, converted with fhi2upf.x v.5.0.2
     Using radial grid of  503 points,  3 beta functions with: 
                l(1) =   0
                l(2) =   1
                l(3) =   3

     atomic species   valence    mass     pseudopotential
        C              4.00    12.01070      C( 1.00)
        H              1.00     1.00794      H( 1.00)
        Cl             7.00     1.00000     Cl( 1.00)

     Starting magnetic structure 
     atomic species   magnetization
        C            0.000
        H            0.000
        Cl           0.000

     No symmetry found


                                    s                        frac. trans.

      isym =  1     identity                                     

 cryst.   s( 1) = (     1          0          0      )
                  (     0          1          0      )
                  (     0          0          1      )

 cart.    s( 1) = (  1.0000000  0.0000000  0.0000000 )
                  (  0.0000000  1.0000000  0.0000000 )
                  (  0.0000000  0.0000000  1.0000000 )


     point group C_1 (1)    
     there are  1 classes
     the character table:

       E    
A      1.00

     the symmetry operations in each class:
     E        1

   Cartesian axes

     site n.     atom                  positions (alat units)
         1           C   tau(   1) = (   0.0000000   0.0698500   0.0000000  )
         2           C   tau(   2) = (   0.0604900   0.0349250   0.0000000  )
         3           C   tau(   3) = (   0.0604900  -0.0349250   0.0000000  )
         4           C   tau(   4) = (   0.0000000  -0.0698500   0.0000000  )
         5           C   tau(   5) = (  -0.0604900  -0.0349250   0.0000000  )
         6           C   tau(   6) = (  -0.0604900   0.0349250   0.0000000  )
         7           H   tau(   7) = (   0.0000000   0.1240500   0.0000000  )
         8           H   tau(   8) = (   0.1074300   0.0620250   0.0000000  )
         9           H   tau(   9) = (   0.1074300  -0.0620250   0.0000000  )
        10           H   tau(  10) = (   0.0000000  -0.1240500   0.0000000  )
        11           H   tau(  11) = (  -0.1074300  -0.0620250   0.0000000  )
        12           H   tau(  12) = (  -0.1074300   0.0620250   0.0000000  )
        13           Cl  tau(  13) = (   0.0302450   0.0523875   0.1500000  )

   Crystallographic axes

     site n.     atom                  positions (cryst. coord.)
         1           C   tau(   1) = (  0.0000000  0.0698500  0.0000000  )
         2           C   tau(   2) = (  0.0604900  0.0349250  0.0000000  )
         3           C   tau(   3) = (  0.0604900 -0.0349250  0.0000000  )
         4           C   tau(   4) = (  0.0000000 -0.0698500  0.0000000  )
         5           C   tau(   5) = ( -0.0604900 -0.0349250  0.0000000  )
         6           C   tau(   6) = ( -0.0604900  0.0349250  0.0000000  )
         7           H   tau(   7) = (  0.0000000  0.1240500  0.0000000  )
         8           H   tau(   8) = (  0.1074300  0.0620250  0.0000000  )
         9           H   tau(   9) = (  0.1074300 -0.0620250  0.0000000  )
        10           H   tau(  10) = (  0.0000000 -0.1240500  0.0000000  )
        11           H   tau(  11) = ( -0.1074300 -0.0620250  0.0000000  )
        12           H   tau(  12) = ( -0.1074300  0.0620250  0.0000000  )
        13           Cl  tau(  13) = (  0.0302450  0.0523875  0.1500000  )

     number of k points=     2
                       cart. coord. in units 2pi/alat
        k(    1) = (   0.0000000   0.0000000   0.0000000), wk =   1.0000000
        k(    2) = (   0.0000000   0.0000000   0.0000000), wk =   1.0000000

                       cryst. coord.
        k(    1) = (   0.0000000   0.0000000   0.0000000), wk =   1.0000000
        k(    2) = (   0.0000000   0.0000000   0.0000000), wk =   1.0000000

     Dense  grid:  4793960 G-vectors     FFT dimensions: ( 264, 264, 264)

     Largest allocated arrays     est. size (Mb)     dimensions
        Kohn-Sham Wavefunctions         0.35 Mb     (     572,   40)
        NL pseudopotentials             1.25 Mb     (     572,  143)
        Each V/rho on FFT grid          2.13 Mb     (   69696,   2)
        Each G-vector array             0.04 Mb     (    4670)
        G-vector shells                 0.02 Mb     (    2136)
     Largest temporary arrays     est. size (Mb)     dimensions
        Each subspace H/S matrix        0.00 Mb     (       1,    1)
        Each <psi_i|beta_j> matrix      0.04 Mb     (     143,   40)
        Arrays for rho mixing           8.51 Mb     (   69696,    8)
 
     Using Hirshfeld
        Amplitude [Ry a.u.] :  1.1821E-01
        Acceptor Fragment start :          13
        Acceptor Fragment end   :          13
        Donor Fragment start :           1
        Donor Fragment end   :          12
 

     Initial potential from superposition of free atoms
     Check: negative starting charge=(component1):   -0.003070
     Check: negative starting charge=(component2):   -0.003070

     starting charge   36.99968, renormalised to   37.00000

     negative rho (up, down):  3.070E-03 3.070E-03
     Starting wfc are  208 randomized atomic wfcs

     total cpu time spent up to now is       39.0 secs

     per-process dynamical memory:    57.0 Mb

     Self-consistent Calculation

     iteration #  1     ecut=   120.00 Ry     beta=0.70
     CG style diagonalization
     ethr =  1.00E-02,  avg # of iterations =  5.5

     negative rho (up, down):  8.009E-04 7.987E-04
 
     Magnetic moment per site:
     atom:    1    charge:    0.8550    magn:    0.0333    constr:    0.0000
     atom:    2    charge:    0.8558    magn:    0.0323    constr:    0.0000
     atom:    3    charge:    0.8873    magn:    0.0005    constr:    0.0000
     atom:    4    charge:    0.8594    magn:    0.0265    constr:    0.0000
     atom:    5    charge:    0.8608    magn:    0.0257    constr:    0.0000
     atom:    6    charge:    0.8866    magn:    0.0004    constr:    0.0000
     atom:    7    charge:    0.4402    magn:    0.0005    constr:    0.0000
     atom:    8    charge:    0.4408    magn:    0.0006    constr:    0.0000
     atom:    9    charge:    0.4417    magn:   -0.0001    constr:    0.0000
     atom:   10    charge:    0.4405    magn:    0.0005    constr:    0.0000
     atom:   11    charge:    0.4411    magn:    0.0006    constr:    0.0000
     atom:   12    charge:    0.4415    magn:    0.0001    constr:    0.0000
     atom:   13    charge:    6.6610    magn:    0.0920    constr:    0.0000

     total cpu time spent up to now is       52.1 secs

     The total energy is the sum of the following terms:

     one-electron contribution =    -696.00592965 Ry
     hartree contribution      =     351.25317764 Ry
     xc contribution           =     -30.93159475 Ry
     ewald contribution        =     268.46058250 Ry

     total energy              =    -102.46208204 Ry
     Harris-Foulkes estimate   =    -103.24755667 Ry
     estimated scf accuracy    <       1.31339228 Ry

     total magnetization       =     1.00 Bohr mag/cell
     absolute magnetization    =     1.00 Bohr mag/cell

     iteration #  2     ecut=   120.00 Ry     beta=0.70
     CG style diagonalization
     ethr =  3.55E-03,  avg # of iterations =  5.4

     negative rho (up, down):  3.716E-04 3.737E-04
 
     Magnetic moment per site:
     atom:    1    charge:    0.8520    magn:    0.0261    constr:    0.0000
     atom:    2    charge:    0.8514    magn:    0.0253    constr:    0.0000
     atom:    3    charge:    0.8425    magn:   -0.0014    constr:    0.0000
     atom:    4    charge:    0.8586    magn:    0.0176    constr:    0.0000
     atom:    5    charge:    0.8580    magn:    0.0171    constr:    0.0000
     atom:    6    charge:    0.8428    magn:   -0.0016    constr:    0.0000
     atom:    7    charge:    0.4720    magn:   -0.0002    constr:    0.0000
     atom:    8    charge:    0.4726    magn:   -0.0002    constr:    0.0000
     atom:    9    charge:    0.4741    magn:   -0.0001    constr:    0.0000
     atom:   10    charge:    0.4736    magn:   -0.0002    constr:    0.0000
     atom:   11    charge:    0.4742    magn:   -0.0001    constr:    0.0000
     atom:   12    charge:    0.4739    magn:   -0.0001    constr:    0.0000
     atom:   13    charge:    6.2843    magn:    0.3691    constr:    0.0000

     total cpu time spent up to now is       60.5 secs

     The total energy is the sum of the following terms:

     one-electron contribution =    -687.11775381 Ry
     hartree contribution      =     348.96524516 Ry
     xc contribution           =     -30.65887926 Ry
     ewald contribution        =     268.46058250 Ry

     total energy              =    -102.59638013 Ry
     Harris-Foulkes estimate   =    -102.87973079 Ry
     estimated scf accuracy    <       0.50693019 Ry

     total magnetization       =     1.00 Bohr mag/cell
     absolute magnetization    =     1.11 Bohr mag/cell

     iteration #  3     ecut=   120.00 Ry     beta=0.70
     CG style diagonalization
     ethr =  1.37E-03,  avg # of iterations =  4.1

     negative rho (up, down):  1.899E-04 1.914E-04
 
     Magnetic moment per site:
     atom:    1    charge:    0.8383    magn:    0.0328    constr:    0.0000
     atom:    2    charge:    0.8381    magn:    0.0316    constr:    0.0000
     atom:    3    charge:    0.8352    magn:   -0.0028    constr:    0.0000
     atom:    4    charge:    0.8369    magn:    0.0253    constr:    0.0000
     atom:    5    charge:    0.8365    magn:    0.0242    constr:    0.0000
     atom:    6    charge:    0.8354    magn:   -0.0029    constr:    0.0000
     atom:    7    charge:    0.4845    magn:   -0.0003    constr:    0.0000
     atom:    8    charge:    0.4851    magn:   -0.0003    constr:    0.0000
     atom:    9    charge:    0.4879    magn:   -0.0002    constr:    0.0000
     atom:   10    charge:    0.4862    magn:   -0.0002    constr:    0.0000
     atom:   11    charge:    0.4868    magn:   -0.0001    constr:    0.0000
     atom:   12    charge:    0.4878    magn:   -0.0001    constr:    0.0000
     atom:   13    charge:    6.4511    magn:    0.2948    constr:    0.0000

     total cpu time spent up to now is       67.2 secs

     The total energy is the sum of the following terms:

     one-electron contribution =    -687.71297448 Ry
     hartree contribution      =     348.15226663 Ry
     xc contribution           =     -30.68958465 Ry
     ewald contribution        =     268.46058250 Ry

     total energy              =    -102.71339072 Ry
     Harris-Foulkes estimate   =    -102.84175059 Ry
     estimated scf accuracy    <       0.30787636 Ry

     total magnetization       =     1.00 Bohr mag/cell
     absolute magnetization    =     1.12 Bohr mag/cell

     iteration #  4     ecut=   120.00 Ry     beta=0.70
     CG style diagonalization
     ethr =  8.32E-04,  avg # of iterations =  3.2

     negative rho (up, down):  4.810E-05 4.850E-05
 
     Magnetic moment per site:
     atom:    1    charge:    0.8310    magn:    0.0366    constr:    0.0000
     atom:    2    charge:    0.8307    magn:    0.0355    constr:    0.0000
     atom:    3    charge:    0.8394    magn:   -0.0040    constr:    0.0000
     atom:    4    charge:    0.8389    magn:    0.0246    constr:    0.0000
     atom:    5    charge:    0.8386    magn:    0.0236    constr:    0.0000
     atom:    6    charge:    0.8393    magn:   -0.0040    constr:    0.0000
     atom:    7    charge:    0.4906    magn:   -0.0006    constr:    0.0000
     atom:    8    charge:    0.4911    magn:   -0.0006    constr:    0.0000
     atom:    9    charge:    0.4931    magn:   -0.0002    constr:    0.0000
     atom:   10    charge:    0.4930    magn:   -0.0006    constr:    0.0000
     atom:   11    charge:    0.4936    magn:   -0.0005    constr:    0.0000
     atom:   12    charge:    0.4931    magn:   -0.0002    constr:    0.0000
     atom:   13    charge:    6.4470    magn:    0.3465    constr:    0.0000

     total cpu time spent up to now is       72.8 secs

     The total energy is the sum of the following terms:

     one-electron contribution =    -690.02945524 Ry
     hartree contribution      =     348.79295029 Ry
     xc contribution           =     -30.77051980 Ry
     ewald contribution        =     268.46058250 Ry

     total energy              =    -102.75618901 Ry
     Harris-Foulkes estimate   =    -102.76390788 Ry
     estimated scf accuracy    <       0.01681505 Ry

     total magnetization       =     1.00 Bohr mag/cell
     absolute magnetization    =     1.12 Bohr mag/cell

     iteration #  5     ecut=   120.00 Ry     beta=0.70
     CG style diagonalization
     c_bands:  1 eigenvalues not converged
     c_bands:  2 eigenvalues not converged
     ethr =  4.54E-05,  avg # of iterations =  6.7

     negative rho (up, down):  1.848E-05 1.869E-05
 
     Magnetic moment per site:
     atom:    1    charge:    0.8356    magn:    0.0393    constr:    0.0000
     atom:    2    charge:    0.8355    magn:    0.0382    constr:    0.0000
     atom:    3    charge:    0.8407    magn:   -0.0053    constr:    0.0000
     atom:    4    charge:    0.8369    magn:    0.0253    constr:    0.0000
     atom:    5    charge:    0.8368    magn:    0.0244    constr:    0.0000
     atom:    6    charge:    0.8407    magn:   -0.0052    constr:    0.0000
     atom:    7    charge:    0.4903    magn:   -0.0009    constr:    0.0000
     atom:    8    charge:    0.4908    magn:   -0.0009    constr:    0.0000
     atom:    9    charge:    0.4922    magn:   -0.0002    constr:    0.0000
     atom:   10    charge:    0.4925    magn:   -0.0008    constr:    0.0000
     atom:   11    charge:    0.4930    magn:   -0.0007    constr:    0.0000
     atom:   12    charge:    0.4922    magn:   -0.0002    constr:    0.0000
     atom:   13    charge:    6.4521    magn:    0.3495    constr:    0.0000

     total cpu time spent up to now is       82.9 secs

     The total energy is the sum of the following terms:

     one-electron contribution =    -689.50755155 Ry
     hartree contribution      =     348.94237782 Ry
     xc contribution           =     -30.78681142 Ry
     ewald contribution        =     268.46058250 Ry

     total energy              =    -102.76030940 Ry
     Harris-Foulkes estimate   =    -102.76266396 Ry
     estimated scf accuracy    <       0.00614202 Ry

     total magnetization       =     1.00 Bohr mag/cell
     absolute magnetization    =     1.16 Bohr mag/cell

     iteration #  6     ecut=   120.00 Ry     beta=0.70
     CG style diagonalization
     c_bands:  2 eigenvalues not converged
     c_bands:  1 eigenvalues not converged
     ethr =  1.66E-05,  avg # of iterations =  4.7

     negative rho (up, down):  7.162E-06 7.287E-06
 
     Magnetic moment per site:
     atom:    1    charge:    0.8360    magn:    0.0417    constr:    0.0000
     atom:    2    charge:    0.8359    magn:    0.0407    constr:    0.0000
     atom:    3    charge:    0.8410    magn:   -0.0062    constr:    0.0000
     atom:    4    charge:    0.8388    magn:    0.0254    constr:    0.0000
     atom:    5    charge:    0.8387    magn:    0.0246    constr:    0.0000
     atom:    6    charge:    0.8411    magn:   -0.0062    constr:    0.0000
     atom:    7    charge:    0.4894    magn:   -0.0012    constr:    0.0000
     atom:    8    charge:    0.4899    magn:   -0.0011    constr:    0.0000
     atom:    9    charge:    0.4912    magn:   -0.0002    constr:    0.0000
     atom:   10    charge:    0.4918    magn:   -0.0009    constr:    0.0000
     atom:   11    charge:    0.4923    magn:   -0.0008    constr:    0.0000
     atom:   12    charge:    0.4912    magn:   -0.0002    constr:    0.0000
     atom:   13    charge:    6.4579    magn:    0.3492    constr:    0.0000

     total cpu time spent up to now is       90.4 secs

     The total energy is the sum of the following terms:

     one-electron contribution =    -689.46530201 Ry
     hartree contribution      =     348.97583182 Ry
     xc contribution           =     -30.79318358 Ry
     ewald contribution        =     268.46058250 Ry

     total energy              =    -102.76147040 Ry
     Harris-Foulkes estimate   =    -102.76171916 Ry
     estimated scf accuracy    <       0.00082204 Ry

     total magnetization       =     1.00 Bohr mag/cell
     absolute magnetization    =     1.17 Bohr mag/cell

     iteration #  7     ecut=   120.00 Ry     beta=0.70
     CG style diagonalization
     ethr =  2.22E-06,  avg # of iterations =  5.2

     negative rho (up, down):  1.358E-06 1.395E-06
 
     Magnetic moment per site:
     atom:    1    charge:    0.8363    magn:    0.0434    constr:    0.0000
     atom:    2    charge:    0.8363    magn:    0.0427    constr:    0.0000
     atom:    3    charge:    0.8417    magn:   -0.0074    constr:    0.0000
     atom:    4    charge:    0.8392    magn:    0.0253    constr:    0.0000
     atom:    5    charge:    0.8391    magn:    0.0246    constr:    0.0000
     atom:    6    charge:    0.8417    magn:   -0.0073    constr:    0.0000
     atom:    7    charge:    0.4890    magn:   -0.0015    constr:    0.0000
     atom:    8    charge:    0.4896    magn:   -0.0014    constr:    0.0000
     atom:    9    charge:    0.4908    magn:   -0.0001    constr:    0.0000
     atom:   10    charge:    0.4912    magn:   -0.0011    constr:    0.0000
     atom:   11    charge:    0.4917    magn:   -0.0010    constr:    0.0000
     atom:   12    charge:    0.4908    magn:   -0.0001    constr:    0.0000
     atom:   13    charge:    6.4547    magn:    0.3568    constr:    0.0000

     total cpu time spent up to now is       98.5 secs

     The total energy is the sum of the following terms:

     one-electron contribution =    -689.48026416 Ry
     hartree contribution      =     349.00634446 Ry
     xc contribution           =     -30.79456906 Ry
     ewald contribution        =     268.46058250 Ry

     total energy              =    -102.76167397 Ry
     Harris-Foulkes estimate   =    -102.76166299 Ry
     estimated scf accuracy    <       0.00012048 Ry

     total magnetization       =     1.00 Bohr mag/cell
     absolute magnetization    =     1.18 Bohr mag/cell

     iteration #  8     ecut=   120.00 Ry     beta=0.70
     CG style diagonalization
     ethr =  3.26E-07,  avg # of iterations =  5.8

     negative rho (up, down):  1.512E-06 1.542E-06
 
     Magnetic moment per site:
     atom:    1    charge:    0.8361    magn:    0.0448    constr:    0.0000
     atom:    2    charge:    0.8360    magn:    0.0443    constr:    0.0000
     atom:    3    charge:    0.8415    magn:   -0.0083    constr:    0.0000
     atom:    4    charge:    0.8390    magn:    0.0253    constr:    0.0000
     atom:    5    charge:    0.8389    magn:    0.0248    constr:    0.0000
     atom:    6    charge:    0.8415    magn:   -0.0082    constr:    0.0000
     atom:    7    charge:    0.4892    magn:   -0.0017    constr:    0.0000
     atom:    8    charge:    0.4897    magn:   -0.0017    constr:    0.0000
     atom:    9    charge:    0.4908    magn:    0.0000    constr:    0.0000
     atom:   10    charge:    0.4913    magn:   -0.0012    constr:    0.0000
     atom:   11    charge:    0.4918    magn:   -0.0011    constr:    0.0000
     atom:   12    charge:    0.4908    magn:    0.0000    constr:    0.0000
     atom:   13    charge:    6.4564    magn:    0.3574    constr:    0.0000

     total cpu time spent up to now is      107.3 secs

     The total energy is the sum of the following terms:

     one-electron contribution =    -689.37653435 Ry
     hartree contribution      =     348.98857515 Ry
     xc contribution           =     -30.79427403 Ry
     ewald contribution        =     268.46058250 Ry

     total energy              =    -102.76172515 Ry
     Harris-Foulkes estimate   =    -102.76172943 Ry
     estimated scf accuracy    <       0.00005542 Ry

     total magnetization       =     1.00 Bohr mag/cell
     absolute magnetization    =     1.19 Bohr mag/cell

     iteration #  9     ecut=   120.00 Ry     beta=0.70
     CG style diagonalization
     ethr =  1.50E-07,  avg # of iterations =  5.4

     negative rho (up, down):  4.169E-08 4.417E-08
 
     Magnetic moment per site:
     atom:    1    charge:    0.8361    magn:    0.0451    constr:    0.0000
     atom:    2    charge:    0.8361    magn:    0.0447    constr:    0.0000
     atom:    3    charge:    0.8414    magn:   -0.0087    constr:    0.0000
     atom:    4    charge:    0.8389    magn:    0.0252    constr:    0.0000
     atom:    5    charge:    0.8389    magn:    0.0248    constr:    0.0000
     atom:    6    charge:    0.8414    magn:   -0.0086    constr:    0.0000
     atom:    7    charge:    0.4893    magn:   -0.0018    constr:    0.0000
     atom:    8    charge:    0.4898    magn:   -0.0017    constr:    0.0000
     atom:    9    charge:    0.4910    magn:    0.0000    constr:    0.0000
     atom:   10    charge:    0.4914    magn:   -0.0012    constr:    0.0000
     atom:   11    charge:    0.4919    magn:   -0.0011    constr:    0.0000
     atom:   12    charge:    0.4910    magn:    0.0000    constr:    0.0000
     atom:   13    charge:    6.4555    magn:    0.3586    constr:    0.0000

     total cpu time spent up to now is      115.5 secs

     The total energy is the sum of the following terms:

     one-electron contribution =    -689.42984077 Ry
     hartree contribution      =     348.99000773 Ry
     xc contribution           =     -30.79443734 Ry
     ewald contribution        =     268.46058250 Ry

     total energy              =    -102.76174110 Ry
     Harris-Foulkes estimate   =    -102.76174512 Ry
     estimated scf accuracy    <       0.00002049 Ry

     total magnetization       =     1.00 Bohr mag/cell
     absolute magnetization    =     1.20 Bohr mag/cell

     iteration # 10     ecut=   120.00 Ry     beta=0.70
     CG style diagonalization
     ethr =  5.54E-08,  avg # of iterations =  5.9

     negative rho (up, down):  2.525E-08 2.568E-08
 
     Magnetic moment per site:
     atom:    1    charge:    0.8361    magn:    0.0454    constr:    0.0000
     atom:    2    charge:    0.8360    magn:    0.0451    constr:    0.0000
     atom:    3    charge:    0.8414    magn:   -0.0090    constr:    0.0000
     atom:    4    charge:    0.8389    magn:    0.0251    constr:    0.0000
     atom:    5    charge:    0.8388    magn:    0.0248    constr:    0.0000
     atom:    6    charge:    0.8415    magn:   -0.0089    constr:    0.0000
     atom:    7    charge:    0.4893    magn:   -0.0018    constr:    0.0000
     atom:    8    charge:    0.4898    magn:   -0.0018    constr:    0.0000
     atom:    9    charge:    0.4909    magn:    0.0000    constr:    0.0000
     atom:   10    charge:    0.4914    magn:   -0.0012    constr:    0.0000
     atom:   11    charge:    0.4919    magn:   -0.0011    constr:    0.0000
     atom:   12    charge:    0.4909    magn:    0.0000    constr:    0.0000
     atom:   13    charge:    6.4554    magn:    0.3587    constr:    0.0000

     total cpu time spent up to now is      124.4 secs

     The total energy is the sum of the following terms:

     one-electron contribution =    -689.41515660 Ry
     hartree contribution      =     348.98931764 Ry
     xc contribution           =     -30.79448851 Ry
     ewald contribution        =     268.46058250 Ry

     total energy              =    -102.76174577 Ry
     Harris-Foulkes estimate   =    -102.76174501 Ry
     estimated scf accuracy    <       0.00000106 Ry

     total magnetization       =     1.00 Bohr mag/cell
     absolute magnetization    =     1.20 Bohr mag/cell

     iteration # 11     ecut=   120.00 Ry     beta=0.70
     CG style diagonalization
     ethr =  2.88E-09,  avg # of iterations =  6.3

     negative rho (up, down):  1.006E-07 1.036E-07
 
     Magnetic moment per site:
     atom:    1    charge:    0.8361    magn:    0.0456    constr:    0.0000
     atom:    2    charge:    0.8361    magn:    0.0453    constr:    0.0000
     atom:    3    charge:    0.8415    magn:   -0.0091    constr:    0.0000
     atom:    4    charge:    0.8389    magn:    0.0252    constr:    0.0000
     atom:    5    charge:    0.8389    magn:    0.0249    constr:    0.0000
     atom:    6    charge:    0.8415    magn:   -0.0090    constr:    0.0000
     atom:    7    charge:    0.4892    magn:   -0.0018    constr:    0.0000
     atom:    8    charge:    0.4898    magn:   -0.0018    constr:    0.0000
     atom:    9    charge:    0.4909    magn:    0.0001    constr:    0.0000
     atom:   10    charge:    0.4914    magn:   -0.0012    constr:    0.0000
     atom:   11    charge:    0.4919    magn:   -0.0012    constr:    0.0000
     atom:   12    charge:    0.4909    magn:    0.0001    constr:    0.0000
     atom:   13    charge:    6.4556    magn:    0.3586    constr:    0.0000

     total cpu time spent up to now is      133.7 secs

     The total energy is the sum of the following terms:

     one-electron contribution =    -689.41775224 Ry
     hartree contribution      =     348.98990380 Ry
     xc contribution           =     -30.79462611 Ry
     ewald contribution        =     268.46058250 Ry

     total energy              =    -102.76174667 Ry
     Harris-Foulkes estimate   =    -102.76174670 Ry
     estimated scf accuracy    <       0.00000101 Ry

     total magnetization       =     1.00 Bohr mag/cell
     absolute magnetization    =     1.21 Bohr mag/cell

     iteration # 12     ecut=   120.00 Ry     beta=0.70
     CG style diagonalization
     ethr =  2.72E-09,  avg # of iterations =  4.6
 
     Magnetic moment per site:
     atom:    1    charge:    0.8361    magn:    0.0457    constr:    0.0000
     atom:    2    charge:    0.8361    magn:    0.0456    constr:    0.0000
     atom:    3    charge:    0.8415    magn:   -0.0093    constr:    0.0000
     atom:    4    charge:    0.8389    magn:    0.0251    constr:    0.0000
     atom:    5    charge:    0.8389    magn:    0.0250    constr:    0.0000
     atom:    6    charge:    0.8415    magn:   -0.0093    constr:    0.0000
     atom:    7    charge:    0.4892    magn:   -0.0019    constr:    0.0000
     atom:    8    charge:    0.4897    magn:   -0.0019    constr:    0.0000
     atom:    9    charge:    0.4909    magn:    0.0001    constr:    0.0000
     atom:   10    charge:    0.4913    magn:   -0.0012    constr:    0.0000
     atom:   11    charge:    0.4919    magn:   -0.0012    constr:    0.0000
     atom:   12    charge:    0.4909    magn:    0.0001    constr:    0.0000
     atom:   13    charge:    6.4557    magn:    0.3585    constr:    0.0000

     total cpu time spent up to now is      140.8 secs

     The total energy is the sum of the following terms:

     one-electron contribution =    -689.41860568 Ry
     hartree contribution      =     348.99113202 Ry
     xc contribution           =     -30.79477404 Ry
     ewald contribution        =     268.46058250 Ry

     total energy              =    -102.76174691 Ry
     Harris-Foulkes estimate   =    -102.76174683 Ry
     estimated scf accuracy    <       0.00000011 Ry

     total magnetization       =     1.00 Bohr mag/cell
     absolute magnetization    =     1.21 Bohr mag/cell

     iteration # 13     ecut=   120.00 Ry     beta=0.70
     CG style diagonalization
     ethr =  2.91E-10,  avg # of iterations =  7.4
 
     Magnetic moment per site:
     atom:    1    charge:    0.8361    magn:    0.0458    constr:    0.0000
     atom:    2    charge:    0.8361    magn:    0.0457    constr:    0.0000
     atom:    3    charge:    0.8415    magn:   -0.0094    constr:    0.0000
     atom:    4    charge:    0.8389    magn:    0.0251    constr:    0.0000
     atom:    5    charge:    0.8389    magn:    0.0250    constr:    0.0000
     atom:    6    charge:    0.8415    magn:   -0.0093    constr:    0.0000
     atom:    7    charge:    0.4892    magn:   -0.0019    constr:    0.0000
     atom:    8    charge:    0.4897    magn:   -0.0019    constr:    0.0000
     atom:    9    charge:    0.4909    magn:    0.0001    constr:    0.0000
     atom:   10    charge:    0.4913    magn:   -0.0012    constr:    0.0000
     atom:   11    charge:    0.4919    magn:   -0.0012    constr:    0.0000
     atom:   12    charge:    0.4909    magn:    0.0001    constr:    0.0000
     atom:   13    charge:    6.4557    magn:    0.3584    constr:    0.0000

     total cpu time spent up to now is      151.6 secs

     The total energy is the sum of the following terms:

     one-electron contribution =    -689.41578409 Ry
     hartree contribution      =     348.99033630 Ry
     xc contribution           =     -30.79472344 Ry
     ewald contribution        =     268.46058250 Ry

     total energy              =    -102.76174704 Ry
     Harris-Foulkes estimate   =    -102.76174704 Ry
     estimated scf accuracy    <       0.00000008 Ry

     total magnetization       =     1.00 Bohr mag/cell
     absolute magnetization    =     1.21 Bohr mag/cell

     iteration # 14     ecut=   120.00 Ry     beta=0.70
     CG style diagonalization
     ethr =  2.28E-10,  avg # of iterations =  5.7
 
     Magnetic moment per site:
     atom:    1    charge:    0.8361    magn:    0.0457    constr:    0.0000
     atom:    2    charge:    0.8361    magn:    0.0457    constr:    0.0000
     atom:    3    charge:    0.8415    magn:   -0.0094    constr:    0.0000
     atom:    4    charge:    0.8389    magn:    0.0251    constr:    0.0000
     atom:    5    charge:    0.8389    magn:    0.0250    constr:    0.0000
     atom:    6    charge:    0.8415    magn:   -0.0094    constr:    0.0000
     atom:    7    charge:    0.4892    magn:   -0.0019    constr:    0.0000
     atom:    8    charge:    0.4898    magn:   -0.0019    constr:    0.0000
     atom:    9    charge:    0.4909    magn:    0.0001    constr:    0.0000
     atom:   10    charge:    0.4914    magn:   -0.0012    constr:    0.0000
     atom:   11    charge:    0.4919    magn:   -0.0012    constr:    0.0000
     atom:   12    charge:    0.4909    magn:    0.0001    constr:    0.0000
     atom:   13    charge:    6.4557    magn:    0.3583    constr:    0.0000

     total cpu time spent up to now is      160.1 secs

     The total energy is the sum of the following terms:

     one-electron contribution =    -689.41691887 Ry
     hartree contribution      =     348.98995598 Ry
     xc contribution           =     -30.79469797 Ry
     ewald contribution        =     268.46058250 Ry

     total energy              =    -102.76174705 Ry
     Harris-Foulkes estimate   =    -102.76174705 Ry
     estimated scf accuracy    <       0.00000002 Ry

     total magnetization       =     1.00 Bohr mag/cell
     absolute magnetization    =     1.21 Bohr mag/cell

     iteration # 15     ecut=   120.00 Ry     beta=0.70
     CG style diagonalization
     ethr =  5.23E-11,  avg # of iterations =  5.1
 
     Magnetic moment per site:
     atom:    1    charge:    0.8361    magn:    0.0457    constr:    0.0000
     atom:    2    charge:    0.8361    magn:    0.0457    constr:    0.0000
     atom:    3    charge:    0.8415    magn:   -0.0094    constr:    0.0000
     atom:    4    charge:    0.8389    magn:    0.0251    constr:    0.0000
     atom:    5    charge:    0.8389    magn:    0.0251    constr:    0.0000
     atom:    6    charge:    0.8415    magn:   -0.0094    constr:    0.0000
     atom:    7    charge:    0.4892    magn:   -0.0019    constr:    0.0000
     atom:    8    charge:    0.4898    magn:   -0.0019    constr:    0.0000
     atom:    9    charge:    0.4909    magn:    0.0001    constr:    0.0000
     atom:   10    charge:    0.4914    magn:   -0.0012    constr:    0.0000
     atom:   11    charge:    0.4919    magn:   -0.0012    constr:    0.0000
     atom:   12    charge:    0.4909    magn:    0.0001    constr:    0.0000
     atom:   13    charge:    6.4557    magn:    0.3583    constr:    0.0000

     total cpu time spent up to now is      167.8 secs

     The total energy is the sum of the following terms:

     one-electron contribution =    -689.41768040 Ry
     hartree contribution      =     348.98997096 Ry
     xc contribution           =     -30.79470566 Ry
     ewald contribution        =     268.46058250 Ry

     total energy              =    -102.76174706 Ry
     Harris-Foulkes estimate   =    -102.76174706 Ry
     estimated scf accuracy    <          2.2E-09 Ry

     total magnetization       =     1.00 Bohr mag/cell
     absolute magnetization    =     1.21 Bohr mag/cell

     iteration # 16     ecut=   120.00 Ry     beta=0.70
     CG style diagonalization
     ethr =  5.87E-12,  avg # of iterations =  5.2
 
     Magnetic moment per site:
     atom:    1    charge:    0.8361    magn:    0.0457    constr:    0.0000
     atom:    2    charge:    0.8361    magn:    0.0457    constr:    0.0000
     atom:    3    charge:    0.8415    magn:   -0.0094    constr:    0.0000
     atom:    4    charge:    0.8389    magn:    0.0251    constr:    0.0000
     atom:    5    charge:    0.8389    magn:    0.0251    constr:    0.0000
     atom:    6    charge:    0.8415    magn:   -0.0094    constr:    0.0000
     atom:    7    charge:    0.4892    magn:   -0.0019    constr:    0.0000
     atom:    8    charge:    0.4898    magn:   -0.0019    constr:    0.0000
     atom:    9    charge:    0.4909    magn:    0.0001    constr:    0.0000
     atom:   10    charge:    0.4914    magn:   -0.0012    constr:    0.0000
     atom:   11    charge:    0.4919    magn:   -0.0012    constr:    0.0000
     atom:   12    charge:    0.4909    magn:    0.0001    constr:    0.0000
     atom:   13    charge:    6.4557    magn:    0.3583    constr:    0.0000

     total cpu time spent up to now is      175.8 secs

     The total energy is the sum of the following terms:

     one-electron contribution =    -689.41769246 Ry
     hartree contribution      =     348.98999980 Ry
     xc contribution           =     -30.79470737 Ry
     ewald contribution        =     268.46058250 Ry

     total energy              =    -102.76174706 Ry
     Harris-Foulkes estimate   =    -102.76174706 Ry
     estimated scf accuracy    <          9.5E-10 Ry

     total magnetization       =     1.00 Bohr mag/cell
     absolute magnetization    =     1.21 Bohr mag/cell

     iteration # 17     ecut=   120.00 Ry     beta=0.70
     CG style diagonalization
     ethr =  2.58E-12,  avg # of iterations =  4.7
 
     Magnetic moment per site:
     atom:    1    charge:    0.8361    magn:    0.0457    constr:    0.0000
     atom:    2    charge:    0.8361    magn:    0.0457    constr:    0.0000
     atom:    3    charge:    0.8415    magn:   -0.0094    constr:    0.0000
     atom:    4    charge:    0.8389    magn:    0.0251    constr:    0.0000
     atom:    5    charge:    0.8389    magn:    0.0251    constr:    0.0000
     atom:    6    charge:    0.8415    magn:   -0.0094    constr:    0.0000
     atom:    7    charge:    0.4892    magn:   -0.0019    constr:    0.0000
     atom:    8    charge:    0.4898    magn:   -0.0019    constr:    0.0000
     atom:    9    charge:    0.4909    magn:    0.0001    constr:    0.0000
     atom:   10    charge:    0.4914    magn:   -0.0012    constr:    0.0000
     atom:   11    charge:    0.4919    magn:   -0.0012    constr:    0.0000
     atom:   12    charge:    0.4909    magn:    0.0001    constr:    0.0000
     atom:   13    charge:    6.4557    magn:    0.3583    constr:    0.0000

     total cpu time spent up to now is      183.1 secs

     The total energy is the sum of the following terms:

     one-electron contribution =    -689.41763997 Ry
     hartree contribution      =     348.99001777 Ry
     xc contribution           =     -30.79470908 Ry
     ewald contribution        =     268.46058250 Ry

     total energy              =    -102.76174706 Ry
     Harris-Foulkes estimate   =    -102.76174706 Ry
     estimated scf accuracy    <          5.4E-10 Ry

     total magnetization       =     1.00 Bohr mag/cell
     absolute magnetization    =     1.21 Bohr mag/cell

     iteration # 18     ecut=   120.00 Ry     beta=0.70
     CG style diagonalization
     ethr =  1.45E-12,  avg # of iterations =  6.8
 
     Magnetic moment per site:
     atom:    1    charge:    0.8361    magn:    0.0457    constr:    0.0000
     atom:    2    charge:    0.8361    magn:    0.0457    constr:    0.0000
     atom:    3    charge:    0.8415    magn:   -0.0094    constr:    0.0000
     atom:    4    charge:    0.8389    magn:    0.0251    constr:    0.0000
     atom:    5    charge:    0.8389    magn:    0.0251    constr:    0.0000
     atom:    6    charge:    0.8415    magn:   -0.0094    constr:    0.0000
     atom:    7    charge:    0.4892    magn:   -0.0019    constr:    0.0000
     atom:    8    charge:    0.4898    magn:   -0.0019    constr:    0.0000
     atom:    9    charge:    0.4909    magn:    0.0001    constr:    0.0000
     atom:   10    charge:    0.4914    magn:   -0.0012    constr:    0.0000
     atom:   11    charge:    0.4919    magn:   -0.0012    constr:    0.0000
     atom:   12    charge:    0.4909    magn:    0.0001    constr:    0.0000
     atom:   13    charge:    6.4557    magn:    0.3583    constr:    0.0000

     total cpu time spent up to now is      193.1 secs

     The total energy is the sum of the following terms:

     one-electron contribution =    -689.41760728 Ry
     hartree contribution      =     348.99000752 Ry
     xc contribution           =     -30.79470844 Ry
     ewald contribution        =     268.46058250 Ry

     total energy              =    -102.76174706 Ry
     Harris-Foulkes estimate   =    -102.76174706 Ry
     estimated scf accuracy    <          2.6E-10 Ry

     total magnetization       =     1.00 Bohr mag/cell
     absolute magnetization    =     1.21 Bohr mag/cell

     iteration # 19     ecut=   120.00 Ry     beta=0.70
     CG style diagonalization
     ethr =  6.92E-13,  avg # of iterations =  4.4
 
     Magnetic moment per site:
     atom:    1    charge:    0.8361    magn:    0.0457    constr:    0.0000
     atom:    2    charge:    0.8361    magn:    0.0457    constr:    0.0000
     atom:    3    charge:    0.8415    magn:   -0.0094    constr:    0.0000
     atom:    4    charge:    0.8389    magn:    0.0251    constr:    0.0000
     atom:    5    charge:    0.8389    magn:    0.0251    constr:    0.0000
     atom:    6    charge:    0.8415    magn:   -0.0094    constr:    0.0000
     atom:    7    charge:    0.4892    magn:   -0.0019    constr:    0.0000
     atom:    8    charge:    0.4898    magn:   -0.0019    constr:    0.0000
     atom:    9    charge:    0.4909    magn:    0.0001    constr:    0.0000
     atom:   10    charge:    0.4914    magn:   -0.0012    constr:    0.0000
     atom:   11    charge:    0.4919    magn:   -0.0012    constr:    0.0000
     atom:   12    charge:    0.4909    magn:    0.0001    constr:    0.0000
     atom:   13    charge:    6.4557    magn:    0.3583    constr:    0.0000

     total cpu time spent up to now is      199.9 secs

     The total energy is the sum of the following terms:

     one-electron contribution =    -689.41763745 Ry
     hartree contribution      =     348.99000664 Ry
     xc contribution           =     -30.79470820 Ry
     ewald contribution        =     268.46058250 Ry

     total energy              =    -102.76174706 Ry
     Harris-Foulkes estimate   =    -102.76174706 Ry
     estimated scf accuracy    <          6.3E-11 Ry

     total magnetization       =     1.00 Bohr mag/cell
     absolute magnetization    =     1.21 Bohr mag/cell

     iteration # 20     ecut=   120.00 Ry     beta=0.70
     CG style diagonalization
     ethr =  1.71E-13,  avg # of iterations =  5.3
 
     Magnetic moment per site:
     atom:    1    charge:    0.8361    magn:    0.0457    constr:    0.0000
     atom:    2    charge:    0.8361    magn:    0.0457    constr:    0.0000
     atom:    3    charge:    0.8415    magn:   -0.0094    constr:    0.0000
     atom:    4    charge:    0.8389    magn:    0.0251    constr:    0.0000
     atom:    5    charge:    0.8389    magn:    0.0251    constr:    0.0000
     atom:    6    charge:    0.8415    magn:   -0.0094    constr:    0.0000
     atom:    7    charge:    0.4892    magn:   -0.0019    constr:    0.0000
     atom:    8    charge:    0.4898    magn:   -0.0019    constr:    0.0000
     atom:    9    charge:    0.4909    magn:    0.0001    constr:    0.0000
     atom:   10    charge:    0.4914    magn:   -0.0012    constr:    0.0000
     atom:   11    charge:    0.4919    magn:   -0.0012    constr:    0.0000
     atom:   12    charge:    0.4909    magn:    0.0001    constr:    0.0000
     atom:   13    charge:    6.4557    magn:    0.3583    constr:    0.0000

     total cpu time spent up to now is      207.9 secs

     The total energy is the sum of the following terms:

     one-electron contribution =    -689.41764210 Ry
     hartree contribution      =     348.99001001 Ry
     xc contribution           =     -30.79470826 Ry
     ewald contribution        =     268.46058250 Ry

     total energy              =    -102.76174706 Ry
     Harris-Foulkes estimate   =    -102.76174706 Ry
     estimated scf accuracy    <          8.1E-12 Ry

     total magnetization       =     1.00 Bohr mag/cell
     absolute magnetization    =     1.21 Bohr mag/cell

     iteration # 21     ecut=   120.00 Ry     beta=0.70
     CG style diagonalization
     ethr =  1.00E-13,  avg # of iterations =  3.8
 
     Magnetic moment per site:
     atom:    1    charge:    0.8361    magn:    0.0457    constr:    0.0000
     atom:    2    charge:    0.8361    magn:    0.0457    constr:    0.0000
     atom:    3    charge:    0.8415    magn:   -0.0094    constr:    0.0000
     atom:    4    charge:    0.8389    magn:    0.0251    constr:    0.0000
     atom:    5    charge:    0.8389    magn:    0.0251    constr:    0.0000
     atom:    6    charge:    0.8415    magn:   -0.0094    constr:    0.0000
     atom:    7    charge:    0.4892    magn:   -0.0019    constr:    0.0000
     atom:    8    charge:    0.4898    magn:   -0.0019    constr:    0.0000
     atom:    9    charge:    0.4909    magn:    0.0001    constr:    0.0000
     atom:   10    charge:    0.4914    magn:   -0.0012    constr:    0.0000
     atom:   11    charge:    0.4919    magn:   -0.0012    constr:    0.0000
     atom:   12    charge:    0.4909    magn:    0.0001    constr:    0.0000
     atom:   13    charge:    6.4557    magn:    0.3583    constr:    0.0000

     total cpu time spent up to now is      214.1 secs

     The total energy is the sum of the following terms:

     one-electron contribution =    -689.41763372 Ry
     hartree contribution      =     348.99001029 Ry
     xc contribution           =     -30.79470827 Ry
     ewald contribution        =     268.46058250 Ry

     total energy              =    -102.76174706 Ry
     Harris-Foulkes estimate   =    -102.76174706 Ry
     estimated scf accuracy    <          2.7E-12 Ry

     total magnetization       =     1.00 Bohr mag/cell
     absolute magnetization    =     1.21 Bohr mag/cell

     iteration # 22     ecut=   120.00 Ry     beta=0.70
     CG style diagonalization
     ethr =  1.00E-13,  avg # of iterations =  3.6
 
     Magnetic moment per site:
     atom:    1    charge:    0.8361    magn:    0.0457    constr:    0.0000
     atom:    2    charge:    0.8361    magn:    0.0457    constr:    0.0000
     atom:    3    charge:    0.8415    magn:   -0.0094    constr:    0.0000
     atom:    4    charge:    0.8389    magn:    0.0251    constr:    0.0000
     atom:    5    charge:    0.8389    magn:    0.0251    constr:    0.0000
     atom:    6    charge:    0.8415    magn:   -0.0094    constr:    0.0000
     atom:    7    charge:    0.4892    magn:   -0.0019    constr:    0.0000
     atom:    8    charge:    0.4898    magn:   -0.0019    constr:    0.0000
     atom:    9    charge:    0.4909    magn:    0.0001    constr:    0.0000
     atom:   10    charge:    0.4914    magn:   -0.0012    constr:    0.0000
     atom:   11    charge:    0.4919    magn:   -0.0012    constr:    0.0000
     atom:   12    charge:    0.4909    magn:    0.0001    constr:    0.0000
     atom:   13    charge:    6.4557    magn:    0.3583    constr:    0.0000

     total cpu time spent up to now is      219.8 secs

     End of self-consistent calculation

 ------ SPIN UP ------------


          k = 0.0000 0.0000 0.0000 (599244 PWs)   bands (ev):

   -21.2103 -18.6138 -18.3984 -18.2059 -14.7017 -14.6921 -12.6805 -10.9327
   -10.8795 -10.1520  -9.9299  -9.1994  -8.0737  -8.0706  -7.2087  -6.6062
    -6.4388  -6.2318  -5.9638  -1.3557  -1.0048  -0.1355   0.2053   0.2663
     0.2735   0.3295   0.4213   0.4550   0.6342   0.6468   0.7118   0.7144
     0.7237   0.7248   0.8085   0.8261   0.8342   0.8582   0.8620   0.8938

     occupation numbers 
     1.0000   1.0000   1.0000   1.0000   1.0000   1.0000   1.0000   1.0000
     1.0000   1.0000   1.0000   1.0000   1.0000   1.0000   1.0000   1.0000
     1.0000   1.0000   1.0000   0.0000   0.0000   0.0000   0.0000   0.0000
     0.0000   0.0000   0.0000   0.0000   0.0000   0.0000   0.0000   0.0000
     0.0000   0.0000   0.0000   0.0000   0.0000   0.0000   0.0000   0.0000

 ------ SPIN DOWN ----------


          k = 0.0000 0.0000 0.0000 (599244 PWs)   bands (ev):

   -21.0530 -18.3206 -18.1604 -18.0178 -14.6108 -14.5662 -12.6457 -10.8663
   -10.8131 -10.0830  -9.9234  -8.7985  -8.0447  -8.0238  -6.5526  -6.4750
    -6.2909  -5.8396  -5.4681  -0.8346  -0.7671  -0.1242   0.2274   0.2735
     0.2770   0.3360   0.4221   0.4637   0.6437   0.6497   0.7129   0.7191
     0.7250   0.7286   0.8144   0.8336   0.8348   0.8591   0.8633   0.8945

     occupation numbers 
     1.0000   1.0000   1.0000   1.0000   1.0000   1.0000   1.0000   1.0000
     1.0000   1.0000   1.0000   1.0000   1.0000   1.0000   1.0000   1.0000
     1.0000   1.0000   0.0000   0.0000   0.0000   0.0000   0.0000   0.0000
     0.0000   0.0000   0.0000   0.0000   0.0000   0.0000   0.0000   0.0000
     0.0000   0.0000   0.0000   0.0000   0.0000   0.0000   0.0000   0.0000

     highest occupied, lowest unoccupied level (ev):    -5.8396   -5.4681

     The total energy is the sum of the following terms:

     one-electron contribution =    -689.41763333 Ry
     hartree contribution      =     348.99001220 Ry
     xc contribution           =     -30.79470843 Ry
     ewald contribution        =     268.46058250 Ry

!    total energy              =    -102.76174706 Ry
     Harris-Foulkes estimate   =    -102.76174706 Ry
     estimated scf accuracy    <          4.5E-13 Ry

     The total energy is the sum of the following terms:

     one-electron contribution =    -689.41763333 Ry
     hartree contribution      =     348.99001220 Ry
     xc contribution           =     -30.79470843 Ry
     ewald contribution        =     268.46058250 Ry

     total magnetization       =     1.00 Bohr mag/cell
     absolute magnetization    =     1.21 Bohr mag/cell

     convergence has been achieved in  22 iterations
 
     Using Hirshfeld
        Amplitude [Ry a.u.] :  1.1821E-01
        Acceptor Fragment start :          13
        Acceptor Fragment end   :          13
        Donor Fragment start :           1
        Donor Fragment end   :          12
 
 
     Using Hirshfeld
        Amplitude [Ry a.u.] :  1.1821E-01
        Acceptor Fragment start :          13
        Acceptor Fragment end   :          13
        Donor Fragment start :           1
        Donor Fragment end   :          12
 
     E field correction              : -0.2600651317639749E+01 Ry    
 
     Donor charge                    :      0.6603840167249686 e     
     Acceptor charge                 :     -0.3396225084185494 e     
     Difference of charges           :      1.0000065251435153 e     
 
     epcdft_thr                      :  0.1000000000000000E-05 e     
     Surplus(+)/deficit(-) charge    :  0.6525143515290210E-05 e     
 
     -----------------------------------------------
 
                      SCF converged but...
 
     electron localization condition NOT satisfied
     restarting scf with different applied potential
 
     New field Amp                   :  0.1172114585902947E+00 Ry    
     charge density from previous step
 
     Using Hirshfeld
        Amplitude [Ry a.u.] :  1.1721E-01
        Acceptor Fragment start :          13
        Acceptor Fragment end   :          13
        Donor Fragment start :           1
        Donor Fragment end   :          12
 

     total cpu time spent up to now is      234.2 secs

     per-process dynamical memory:    65.1 Mb

     Self-consistent Calculation

     iteration #  1     ecut=   120.00 Ry     beta=0.70
     CG style diagonalization
     ethr =  1.00E-13,  avg # of iterations = 31.1
 
     Magnetic moment per site:
     atom:    1    charge:    0.8365    magn:    0.0454    constr:    0.0000
     atom:    2    charge:    0.8364    magn:    0.0454    constr:    0.0000
     atom:    3    charge:    0.8415    magn:   -0.0094    constr:    0.0000
     atom:    4    charge:    0.8393    magn:    0.0247    constr:    0.0000
     atom:    5    charge:    0.8392    magn:    0.0248    constr:    0.0000
     atom:    6    charge:    0.8415    magn:   -0.0094    constr:    0.0000
     atom:    7    charge:    0.4892    magn:   -0.0019    constr:    0.0000
     atom:    8    charge:    0.4898    magn:   -0.0019    constr:    0.0000
     atom:    9    charge:    0.4909    magn:    0.0001    constr:    0.0000
     atom:   10    charge:    0.4914    magn:   -0.0012    constr:    0.0000
     atom:   11    charge:    0.4919    magn:   -0.0012    constr:    0.0000
     atom:   12    charge:    0.4909    magn:    0.0001    constr:    0.0000
     atom:   13    charge:    6.4489    magn:    0.3647    constr:    0.0000

     total cpu time spent up to now is      274.7 secs

     The total energy is the sum of the following terms:

     one-electron contribution =    -689.47576040 Ry
     hartree contribution      =     349.01487915 Ry
     xc contribution           =     -30.79426709 Ry
     ewald contribution        =     268.46058250 Ry

     total energy              =    -102.78370785 Ry
     Harris-Foulkes estimate   =    -102.78375804 Ry
     estimated scf accuracy    <       0.00007054 Ry

     total magnetization       =     1.00 Bohr mag/cell
     absolute magnetization    =     1.21 Bohr mag/cell

     iteration #  2     ecut=   120.00 Ry     beta=0.70
     CG style diagonalization
     ethr =  1.91E-07,  avg # of iterations =  4.3
 
     Magnetic moment per site:
     atom:    1    charge:    0.8362    magn:    0.0456    constr:    0.0000
     atom:    2    charge:    0.8361    magn:    0.0456    constr:    0.0000
     atom:    3    charge:    0.8415    magn:   -0.0094    constr:    0.0000
     atom:    4    charge:    0.8389    magn:    0.0250    constr:    0.0000
     atom:    5    charge:    0.8389    magn:    0.0250    constr:    0.0000
     atom:    6    charge:    0.8415    magn:   -0.0094    constr:    0.0000
     atom:    7    charge:    0.4893    magn:   -0.0019    constr:    0.0000
     atom:    8    charge:    0.4898    magn:   -0.0019    constr:    0.0000
     atom:    9    charge:    0.4909    magn:    0.0001    constr:    0.0000
     atom:   10    charge:    0.4914    magn:   -0.0012    constr:    0.0000
     atom:   11    charge:    0.4919    magn:   -0.0012    constr:    0.0000
     atom:   12    charge:    0.4909    magn:    0.0001    constr:    0.0000
     atom:   13    charge:    6.4542    magn:    0.3604    constr:    0.0000

     total cpu time spent up to now is      281.5 secs

     The total energy is the sum of the following terms:

     one-electron contribution =    -689.33314091 Ry
     hartree contribution      =     348.99499196 Ry
     xc contribution           =     -30.79459435 Ry
     ewald contribution        =     268.46058250 Ry

     total energy              =    -102.78365457 Ry
     Harris-Foulkes estimate   =    -102.78386112 Ry
     estimated scf accuracy    <       0.00088811 Ry

     total magnetization       =     1.00 Bohr mag/cell
     absolute magnetization    =     1.21 Bohr mag/cell

     iteration #  3     ecut=   120.00 Ry     beta=0.70
     CG style diagonalization
     ethr =  1.91E-07,  avg # of iterations =  3.9
 
     Magnetic moment per site:
     atom:    1    charge:    0.8361    magn:    0.0456    constr:    0.0000
     atom:    2    charge:    0.8360    magn:    0.0456    constr:    0.0000
     atom:    3    charge:    0.8415    magn:   -0.0094    constr:    0.0000
     atom:    4    charge:    0.8389    magn:    0.0249    constr:    0.0000
     atom:    5    charge:    0.8389    magn:    0.0250    constr:    0.0000
     atom:    6    charge:    0.8415    magn:   -0.0094    constr:    0.0000
     atom:    7    charge:    0.4893    magn:   -0.0019    constr:    0.0000
     atom:    8    charge:    0.4898    magn:   -0.0019    constr:    0.0000
     atom:    9    charge:    0.4909    magn:    0.0001    constr:    0.0000
     atom:   10    charge:    0.4914    magn:   -0.0012    constr:    0.0000
     atom:   11    charge:    0.4919    magn:   -0.0012    constr:    0.0000
     atom:   12    charge:    0.4909    magn:    0.0001    constr:    0.0000
     atom:   13    charge:    6.4542    magn:    0.3606    constr:    0.0000

     total cpu time spent up to now is      287.7 secs

     The total energy is the sum of the following terms:

     one-electron contribution =    -689.44463440 Ry
     hartree contribution      =     348.99463233 Ry
     xc contribution           =     -30.79457805 Ry
     ewald contribution        =     268.46058250 Ry

     total energy              =    -102.78374935 Ry
     Harris-Foulkes estimate   =    -102.78374952 Ry
     estimated scf accuracy    <       0.00000037 Ry

     total magnetization       =     1.00 Bohr mag/cell
     absolute magnetization    =     1.21 Bohr mag/cell

     iteration #  4     ecut=   120.00 Ry     beta=0.70
     CG style diagonalization
     ethr =  9.95E-10,  avg # of iterations =  6.8
 
     Magnetic moment per site:
     atom:    1    charge:    0.8361    magn:    0.0456    constr:    0.0000
     atom:    2    charge:    0.8361    magn:    0.0456    constr:    0.0000
     atom:    3    charge:    0.8415    magn:   -0.0093    constr:    0.0000
     atom:    4    charge:    0.8389    magn:    0.0249    constr:    0.0000
     atom:    5    charge:    0.8389    magn:    0.0250    constr:    0.0000
     atom:    6    charge:    0.8415    magn:   -0.0094    constr:    0.0000
     atom:    7    charge:    0.4893    magn:   -0.0019    constr:    0.0000
     atom:    8    charge:    0.4898    magn:   -0.0019    constr:    0.0000
     atom:    9    charge:    0.4909    magn:    0.0001    constr:    0.0000
     atom:   10    charge:    0.4914    magn:   -0.0012    constr:    0.0000
     atom:   11    charge:    0.4919    magn:   -0.0012    constr:    0.0000
     atom:   12    charge:    0.4909    magn:    0.0001    constr:    0.0000
     atom:   13    charge:    6.4542    magn:    0.3607    constr:    0.0000

     total cpu time spent up to now is      297.6 secs

     The total energy is the sum of the following terms:

     one-electron contribution =    -689.44940717 Ry
     hartree contribution      =     348.99586841 Ry
     xc contribution           =     -30.79464837 Ry
     ewald contribution        =     268.46058250 Ry

     total energy              =    -102.78374970 Ry
     Harris-Foulkes estimate   =    -102.78374982 Ry
     estimated scf accuracy    <       0.00000049 Ry

     total magnetization       =     1.00 Bohr mag/cell
     absolute magnetization    =     1.21 Bohr mag/cell

     iteration #  5     ecut=   120.00 Ry     beta=0.70
     CG style diagonalization
     ethr =  9.95E-10,  avg # of iterations =  3.1
 
     Magnetic moment per site:
     atom:    1    charge:    0.8362    magn:    0.0455    constr:    0.0000
     atom:    2    charge:    0.8361    magn:    0.0456    constr:    0.0000
     atom:    3    charge:    0.8415    magn:   -0.0093    constr:    0.0000
     atom:    4    charge:    0.8389    magn:    0.0249    constr:    0.0000
     atom:    5    charge:    0.8389    magn:    0.0250    constr:    0.0000
     atom:    6    charge:    0.8415    magn:   -0.0094    constr:    0.0000
     atom:    7    charge:    0.4892    magn:   -0.0019    constr:    0.0000
     atom:    8    charge:    0.4898    magn:   -0.0019    constr:    0.0000
     atom:    9    charge:    0.4909    magn:    0.0001    constr:    0.0000
     atom:   10    charge:    0.4914    magn:   -0.0012    constr:    0.0000
     atom:   11    charge:    0.4919    magn:   -0.0012    constr:    0.0000
     atom:   12    charge:    0.4909    magn:    0.0001    constr:    0.0000
     atom:   13    charge:    6.4542    magn:    0.3607    constr:    0.0000

     total cpu time spent up to now is      302.8 secs

     The total energy is the sum of the following terms:

     one-electron contribution =    -689.44734947 Ry
     hartree contribution      =     348.99616841 Ry
     xc contribution           =     -30.79464866 Ry
     ewald contribution        =     268.46058250 Ry

     total energy              =    -102.78374972 Ry
     Harris-Foulkes estimate   =    -102.78374974 Ry
     estimated scf accuracy    <       0.00000010 Ry

     total magnetization       =     1.00 Bohr mag/cell
     absolute magnetization    =     1.21 Bohr mag/cell

     iteration #  6     ecut=   120.00 Ry     beta=0.70
     CG style diagonalization
     ethr =  2.64E-10,  avg # of iterations =  3.4
 
     Magnetic moment per site:
     atom:    1    charge:    0.8362    magn:    0.0455    constr:    0.0000
     atom:    2    charge:    0.8361    magn:    0.0456    constr:    0.0000
     atom:    3    charge:    0.8415    magn:   -0.0093    constr:    0.0000
     atom:    4    charge:    0.8389    magn:    0.0249    constr:    0.0000
     atom:    5    charge:    0.8389    magn:    0.0250    constr:    0.0000
     atom:    6    charge:    0.8415    magn:   -0.0093    constr:    0.0000
     atom:    7    charge:    0.4893    magn:   -0.0019    constr:    0.0000
     atom:    8    charge:    0.4898    magn:   -0.0019    constr:    0.0000
     atom:    9    charge:    0.4909    magn:    0.0001    constr:    0.0000
     atom:   10    charge:    0.4914    magn:   -0.0012    constr:    0.0000
     atom:   11    charge:    0.4919    magn:   -0.0012    constr:    0.0000
     atom:   12    charge:    0.4909    magn:    0.0001    constr:    0.0000
     atom:   13    charge:    6.4542    magn:    0.3608    constr:    0.0000

     total cpu time spent up to now is      308.4 secs

     The total energy is the sum of the following terms:

     one-electron contribution =    -689.44614281 Ry
     hartree contribution      =     348.99614420 Ry
     xc contribution           =     -30.79463457 Ry
     ewald contribution        =     268.46058250 Ry

     total energy              =    -102.78374973 Ry
     Harris-Foulkes estimate   =    -102.78374973 Ry
     estimated scf accuracy    <       0.00000001 Ry

     total magnetization       =     1.00 Bohr mag/cell
     absolute magnetization    =     1.21 Bohr mag/cell

     iteration #  7     ecut=   120.00 Ry     beta=0.70
     CG style diagonalization
     ethr =  2.75E-11,  avg # of iterations =  4.9
 
     Magnetic moment per site:
     atom:    1    charge:    0.8362    magn:    0.0455    constr:    0.0000
     atom:    2    charge:    0.8361    magn:    0.0456    constr:    0.0000
     atom:    3    charge:    0.8415    magn:   -0.0093    constr:    0.0000
     atom:    4    charge:    0.8389    magn:    0.0249    constr:    0.0000
     atom:    5    charge:    0.8389    magn:    0.0249    constr:    0.0000
     atom:    6    charge:    0.8415    magn:   -0.0093    constr:    0.0000
     atom:    7    charge:    0.4893    magn:   -0.0019    constr:    0.0000
     atom:    8    charge:    0.4898    magn:   -0.0019    constr:    0.0000
     atom:    9    charge:    0.4909    magn:    0.0001    constr:    0.0000
     atom:   10    charge:    0.4914    magn:   -0.0012    constr:    0.0000
     atom:   11    charge:    0.4919    magn:   -0.0012    constr:    0.0000
     atom:   12    charge:    0.4909    magn:    0.0001    constr:    0.0000
     atom:   13    charge:    6.4541    magn:    0.3608    constr:    0.0000

     total cpu time spent up to now is      315.9 secs

     The total energy is the sum of the following terms:

     one-electron contribution =    -689.44596953 Ry
     hartree contribution      =     348.99611568 Ry
     xc contribution           =     -30.79462213 Ry
     ewald contribution        =     268.46058250 Ry

     total energy              =    -102.78374973 Ry
     Harris-Foulkes estimate   =    -102.78374973 Ry
     estimated scf accuracy    <          3.2E-09 Ry

     total magnetization       =     1.00 Bohr mag/cell
     absolute magnetization    =     1.21 Bohr mag/cell

     iteration #  8     ecut=   120.00 Ry     beta=0.70
     CG style diagonalization
     ethr =  8.56E-12,  avg # of iterations =  4.1
 
     Magnetic moment per site:
     atom:    1    charge:    0.8362    magn:    0.0455    constr:    0.0000
     atom:    2    charge:    0.8361    magn:    0.0456    constr:    0.0000
     atom:    3    charge:    0.8415    magn:   -0.0093    constr:    0.0000
     atom:    4    charge:    0.8389    magn:    0.0249    constr:    0.0000
     atom:    5    charge:    0.8389    magn:    0.0249    constr:    0.0000
     atom:    6    charge:    0.8415    magn:   -0.0093    constr:    0.0000
     atom:    7    charge:    0.4893    magn:   -0.0019    constr:    0.0000
     atom:    8    charge:    0.4898    magn:   -0.0019    constr:    0.0000
     atom:    9    charge:    0.4909    magn:    0.0001    constr:    0.0000
     atom:   10    charge:    0.4914    magn:   -0.0012    constr:    0.0000
     atom:   11    charge:    0.4919    magn:   -0.0012    constr:    0.0000
     atom:   12    charge:    0.4909    magn:    0.0001    constr:    0.0000
     atom:   13    charge:    6.4541    magn:    0.3608    constr:    0.0000

     total cpu time spent up to now is      322.3 secs

     The total energy is the sum of the following terms:

     one-electron contribution =    -689.44590010 Ry
     hartree contribution      =     348.99614730 Ry
     xc contribution           =     -30.79462410 Ry
     ewald contribution        =     268.46058250 Ry

     total energy              =    -102.78374973 Ry
     Harris-Foulkes estimate   =    -102.78374973 Ry
     estimated scf accuracy    <          1.5E-10 Ry

     total magnetization       =     1.00 Bohr mag/cell
     absolute magnetization    =     1.21 Bohr mag/cell

     iteration #  9     ecut=   120.00 Ry     beta=0.70
     CG style diagonalization
     ethr =  4.13E-13,  avg # of iterations =  6.0
 
     Magnetic moment per site:
     atom:    1    charge:    0.8362    magn:    0.0455    constr:    0.0000
     atom:    2    charge:    0.8361    magn:    0.0456    constr:    0.0000
     atom:    3    charge:    0.8415    magn:   -0.0093    constr:    0.0000
     atom:    4    charge:    0.8389    magn:    0.0249    constr:    0.0000
     atom:    5    charge:    0.8389    magn:    0.0249    constr:    0.0000
     atom:    6    charge:    0.8415    magn:   -0.0093    constr:    0.0000
     atom:    7    charge:    0.4893    magn:   -0.0019    constr:    0.0000
     atom:    8    charge:    0.4898    magn:   -0.0019    constr:    0.0000
     atom:    9    charge:    0.4909    magn:    0.0001    constr:    0.0000
     atom:   10    charge:    0.4914    magn:   -0.0012    constr:    0.0000
     atom:   11    charge:    0.4919    magn:   -0.0012    constr:    0.0000
     atom:   12    charge:    0.4909    magn:    0.0001    constr:    0.0000
     atom:   13    charge:    6.4541    magn:    0.3608    constr:    0.0000

     total cpu time spent up to now is      331.2 secs

     The total energy is the sum of the following terms:

     one-electron contribution =    -689.44584275 Ry
     hartree contribution      =     348.99613992 Ry
     xc contribution           =     -30.79462328 Ry
     ewald contribution        =     268.46058250 Ry

     total energy              =    -102.78374973 Ry
     Harris-Foulkes estimate   =    -102.78374973 Ry
     estimated scf accuracy    <          2.0E-11 Ry

     total magnetization       =     1.00 Bohr mag/cell
     absolute magnetization    =     1.21 Bohr mag/cell

     iteration # 10     ecut=   120.00 Ry     beta=0.70
     CG style diagonalization
     ethr =  1.00E-13,  avg # of iterations =  4.2
 
     Magnetic moment per site:
     atom:    1    charge:    0.8362    magn:    0.0455    constr:    0.0000
     atom:    2    charge:    0.8361    magn:    0.0456    constr:    0.0000
     atom:    3    charge:    0.8415    magn:   -0.0093    constr:    0.0000
     atom:    4    charge:    0.8389    magn:    0.0249    constr:    0.0000
     atom:    5    charge:    0.8389    magn:    0.0249    constr:    0.0000
     atom:    6    charge:    0.8415    magn:   -0.0093    constr:    0.0000
     atom:    7    charge:    0.4893    magn:   -0.0019    constr:    0.0000
     atom:    8    charge:    0.4898    magn:   -0.0019    constr:    0.0000
     atom:    9    charge:    0.4909    magn:    0.0001    constr:    0.0000
     atom:   10    charge:    0.4914    magn:   -0.0012    constr:    0.0000
     atom:   11    charge:    0.4919    magn:   -0.0012    constr:    0.0000
     atom:   12    charge:    0.4909    magn:    0.0001    constr:    0.0000
     atom:   13    charge:    6.4541    magn:    0.3608    constr:    0.0000

     total cpu time spent up to now is      337.8 secs

     The total energy is the sum of the following terms:

     one-electron contribution =    -689.44586550 Ry
     hartree contribution      =     348.99614813 Ry
     xc contribution           =     -30.79462347 Ry
     ewald contribution        =     268.46058250 Ry

     total energy              =    -102.78374973 Ry
     Harris-Foulkes estimate   =    -102.78374973 Ry
     estimated scf accuracy    <          1.3E-11 Ry

     total magnetization       =     1.00 Bohr mag/cell
     absolute magnetization    =     1.21 Bohr mag/cell

     iteration # 11     ecut=   120.00 Ry     beta=0.70
     CG style diagonalization
     ethr =  1.00E-13,  avg # of iterations =  3.6
2015-08-24 17:59:15.678 (INFO ) [0xfffb06a34e0] 28728:tatu.runjob.monitor: tracklib completed
 
     Magnetic moment per site:
     atom:    1    charge:    0.8362    magn:    0.0455    constr:    0.0000
     atom:    2    charge:    0.8361    magn:    0.0456    constr:    0.0000
     atom:    3    charge:    0.8415    magn:   -0.0093    constr:    0.0000
     atom:    4    charge:    0.8389    magn:    0.0249    constr:    0.0000
     atom:    5    charge:    0.8389    magn:    0.0249    constr:    0.0000
     atom:    6    charge:    0.8415    magn:   -0.0093    constr:    0.0000
     atom:    7    charge:    0.4893    magn:   -0.0019    constr:    0.0000
     atom:    8    charge:    0.4898    magn:   -0.0019    constr:    0.0000
     atom:    9    charge:    0.4909    magn:    0.0001    constr:    0.0000
     atom:   10    charge:    0.4914    magn:   -0.0012    constr:    0.0000
     atom:   11    charge:    0.4919    magn:   -0.0012    constr:    0.0000
     atom:   12    charge:    0.4909    magn:    0.0001    constr:    0.0000
     atom:   13    charge:    6.4541    magn:    0.3608    constr:    0.0000

     total cpu time spent up to now is      343.7 secs

     The total energy is the sum of the following terms:

     one-electron contribution =    -689.44585312 Ry
     hartree contribution      =     348.99614902 Ry
     xc contribution           =     -30.79462346 Ry
     ewald contribution        =     268.46058250 Ry

     total energy              =    -102.78374973 Ry
     Harris-Foulkes estimate   =    -102.78374973 Ry
     estimated scf accuracy    <          2.0E-12 Ry

     total magnetization       =     1.00 Bohr mag/cell
     absolute magnetization    =     1.21 Bohr mag/cell

     iteration # 12     ecut=   120.00 Ry     beta=0.70
     CG style diagonalization
     ethr =  1.00E-13,  avg # of iterations =  3.4
 
     Magnetic moment per site:
     atom:    1    charge:    0.8362    magn:    0.0455    constr:    0.0000
     atom:    2    charge:    0.8361    magn:    0.0456    constr:    0.0000
     atom:    3    charge:    0.8415    magn:   -0.0093    constr:    0.0000
     atom:    4    charge:    0.8389    magn:    0.0249    constr:    0.0000
     atom:    5    charge:    0.8389    magn:    0.0249    constr:    0.0000
     atom:    6    charge:    0.8415    magn:   -0.0093    constr:    0.0000
     atom:    7    charge:    0.4893    magn:   -0.0019    constr:    0.0000
     atom:    8    charge:    0.4898    magn:   -0.0019    constr:    0.0000
     atom:    9    charge:    0.4909    magn:    0.0001    constr:    0.0000
     atom:   10    charge:    0.4914    magn:   -0.0012    constr:    0.0000
     atom:   11    charge:    0.4919    magn:   -0.0012    constr:    0.0000
     atom:   12    charge:    0.4909    magn:    0.0001    constr:    0.0000
     atom:   13    charge:    6.4541    magn:    0.3608    constr:    0.0000

     total cpu time spent up to now is      349.3 secs

     End of self-consistent calculation

 ------ SPIN UP ------------


          k = 0.0000 0.0000 0.0000 (599244 PWs)   bands (ev):

   -21.2156 -18.6192 -18.4041 -18.2123 -14.7078 -14.6982 -12.6872 -10.9396
   -10.8852 -10.1580  -9.9371  -9.2050  -8.0802  -8.0772  -7.2150  -6.6102
    -6.4419  -6.2372  -5.9696  -1.3606  -1.0116  -0.1378   0.2048   0.2651
     0.2722   0.3284   0.4212   0.4543   0.6343   0.6461   0.7114   0.7133
     0.7229   0.7239   0.8083   0.8244   0.8340   0.8579   0.8617   0.8932

     occupation numbers 
     1.0000   1.0000   1.0000   1.0000   1.0000   1.0000   1.0000   1.0000
     1.0000   1.0000   1.0000   1.0000   1.0000   1.0000   1.0000   1.0000
     1.0000   1.0000   1.0000   0.0000   0.0000   0.0000   0.0000   0.0000
     0.0000   0.0000   0.0000   0.0000   0.0000   0.0000   0.0000   0.0000
     0.0000   0.0000   0.0000   0.0000   0.0000   0.0000   0.0000   0.0000

 ------ SPIN DOWN ----------


          k = 0.0000 0.0000 0.0000 (599244 PWs)   bands (ev):

   -21.0591 -18.3263 -18.1670 -18.0212 -14.6173 -14.5729 -12.6525 -10.8735
   -10.8191 -10.0893  -9.9306  -8.8056  -8.0513  -8.0306  -6.5565  -6.4784
    -6.2932  -5.8456  -5.4732  -0.8420  -0.7751  -0.1264   0.2268   0.2722
     0.2759   0.3349   0.4220   0.4632   0.6436   0.6492   0.7125   0.7180
     0.7237   0.7282   0.8142   0.8322   0.8343   0.8588   0.8630   0.8940

     occupation numbers 
     1.0000   1.0000   1.0000   1.0000   1.0000   1.0000   1.0000   1.0000
     1.0000   1.0000   1.0000   1.0000   1.0000   1.0000   1.0000   1.0000
     1.0000   1.0000   0.0000   0.0000   0.0000   0.0000   0.0000   0.0000
     0.0000   0.0000   0.0000   0.0000   0.0000   0.0000   0.0000   0.0000
     0.0000   0.0000   0.0000   0.0000   0.0000   0.0000   0.0000   0.0000

     highest occupied, lowest unoccupied level (ev):    -5.8456   -5.4732

     The total energy is the sum of the following terms:

     one-electron contribution =    -689.44585349 Ry
     hartree contribution      =     348.99614439 Ry
     xc contribution           =     -30.79462314 Ry
     ewald contribution        =     268.46058250 Ry

!    total energy              =    -102.78374973 Ry
     Harris-Foulkes estimate   =    -102.78374973 Ry
     estimated scf accuracy    <          3.5E-13 Ry

     The total energy is the sum of the following terms:

     one-electron contribution =    -689.44585349 Ry
     hartree contribution      =     348.99614439 Ry
     xc contribution           =     -30.79462314 Ry
     ewald contribution        =     268.46058250 Ry

     total magnetization       =     1.00 Bohr mag/cell
     absolute magnetization    =     1.21 Bohr mag/cell

     convergence has been achieved in  12 iterations
 
     Using Hirshfeld
        Amplitude [Ry a.u.] :  1.1721E-01
        Acceptor Fragment start :          13
        Acceptor Fragment end   :          13
        Donor Fragment start :           1
        Donor Fragment end   :          12
 
 
     Using Hirshfeld
        Amplitude [Ry a.u.] :  1.1721E-01
        Acceptor Fragment start :          13
        Acceptor Fragment end   :          13
        Donor Fragment start :           1
        Donor Fragment end   :          12
 
     E field correction              : -0.2579278405341583E+01 Ry    
 
     Donor charge                    :      0.6576459816319833 e     
     Acceptor charge                 :     -0.3370105445930536 e     
     Difference of charges           :      0.9946565262250431 e     
 
     epcdft_thr                      :  0.1000000000000000E-05 e     
     Surplus(+)/deficit(-) charge    : -0.5343473774956919E-02 e     
 
     -----------------------------------------------
 
                      SCF converged but...
 
     electron localization condition NOT satisfied
     restarting scf with different applied potential
 
     New field Amp                   :  0.1182102389370546E+00 Ry    
     charge density from previous step
 
     Using Hirshfeld
        Amplitude [Ry a.u.] :  1.1821E-01
        Acceptor Fragment start :          13
        Acceptor Fragment end   :          13
        Donor Fragment start :           1
        Donor Fragment end   :          12
 

     total cpu time spent up to now is      363.3 secs

     per-process dynamical memory:    65.1 Mb

     Self-consistent Calculation

     iteration #  1     ecut=   120.00 Ry     beta=0.70
     CG style diagonalization
     ethr =  1.00E-13,  avg # of iterations = 31.1
 
     Magnetic moment per site:
     atom:    1    charge:    0.8358    magn:    0.0458    constr:    0.0000
     atom:    2    charge:    0.8358    magn:    0.0459    constr:    0.0000
     atom:    3    charge:    0.8415    magn:   -0.0093    constr:    0.0000
     atom:    4    charge:    0.8386    magn:    0.0252    constr:    0.0000
     atom:    5    charge:    0.8386    magn:    0.0253    constr:    0.0000
     atom:    6    charge:    0.8415    magn:   -0.0094    constr:    0.0000
     atom:    7    charge:    0.4892    magn:   -0.0019    constr:    0.0000
[...]

     total magnetization       =     1.00 Bohr mag/cell
     absolute magnetization    =     1.21 Bohr mag/cell

     iteration #  5     ecut=   120.00 Ry     beta=0.70
     CG style diagonalization
     ethr =  9.03E-10,  avg # of iterations =  3.1
 
     Magnetic moment per site:
     atom:    1    charge:    0.8361    magn:    0.0457    constr:    0.0000
     atom:    2    charge:    0.8361    magn:    0.0457    constr:    0.0000
     atom:    3    charge:    0.8415    magn:   -0.0094    constr:    0.0000
     atom:    4    charge:    0.8389    magn:    0.0251    constr:    0.0000
     atom:    5    charge:    0.8389    magn:    0.0251    constr:    0.0000
     atom:    6    charge:    0.8415    magn:   -0.0094    constr:    0.0000
     atom:    7    charge:    0.4892    magn:   -0.0019    constr:    0.0000
     atom:    8    charge:    0.4898    magn:   -0.0019    constr:    0.0000
     atom:    9    charge:    0.4909    magn:    0.0001    constr:    0.0000
     atom:   10    charge:    0.4913    magn:   -0.0012    constr:    0.0000
     atom:   11    charge:    0.4919    magn:   -0.0012    constr:    0.0000
     atom:   12    charge:    0.4909    magn:    0.0001    constr:    0.0000
     atom:   13    charge:    6.4557    magn:    0.3584    constr:    0.0000

     total cpu time spent up to now is      432.0 secs

     The total energy is the sum of the following terms:

     one-electron contribution =    -689.41595319 Ry
     hartree contribution      =     348.99006219 Ry
     xc contribution           =     -30.79468256 Ry
     ewald contribution        =     268.46058250 Ry

     total energy              =    -102.76177388 Ry
     Harris-Foulkes estimate   =    -102.76177390 Ry
     estimated scf accuracy    <       0.00000012 Ry

     total magnetization       =     1.00 Bohr mag/cell
     absolute magnetization    =     1.21 Bohr mag/cell

     iteration #  6     ecut=   120.00 Ry     beta=0.70
     CG style diagonalization
     ethr =  3.31E-10,  avg # of iterations =  3.1
 
     Magnetic moment per site:
     atom:    1    charge:    0.8361    magn:    0.0457    constr:    0.0000
     atom:    2    charge:    0.8361    magn:    0.0457    constr:    0.0000
     atom:    3    charge:    0.8415    magn:   -0.0094    constr:    0.0000
     atom:    4    charge:    0.8389    magn:    0.0251    constr:    0.0000
     atom:    5    charge:    0.8389    magn:    0.0251    constr:    0.0000
     atom:    6    charge:    0.8415    magn:   -0.0094    constr:    0.0000
     atom:    7    charge:    0.4892    magn:   -0.0019    constr:    0.0000
     atom:    8    charge:    0.4898    magn:   -0.0019    constr:    0.0000
     atom:    9    charge:    0.4909    magn:    0.0001    constr:    0.0000
     atom:   10    charge:    0.4914    magn:   -0.0012    constr:    0.0000
     atom:   11    charge:    0.4919    magn:   -0.0012    constr:    0.0000
     atom:   12    charge:    0.4909    magn:    0.0001    constr:    0.0000
     atom:   13    charge:    6.4557    magn:    0.3583    constr:    0.0000

     total cpu time spent up to now is      437.3 secs

     The total energy is the sum of the following terms:

     one-electron contribution =    -689.41701106 Ry
     hartree contribution      =     348.99000369 Ry
     xc contribution           =     -30.79469413 Ry
     ewald contribution        =     268.46058250 Ry

     total energy              =    -102.76177389 Ry
     Harris-Foulkes estimate   =    -102.76177389 Ry
     estimated scf accuracy    <       0.00000002 Ry

     total magnetization       =     1.00 Bohr mag/cell
     absolute magnetization    =     1.21 Bohr mag/cell

     iteration #  7     ecut=   120.00 Ry     beta=0.70
     CG style diagonalization
     ethr =  6.45E-11,  avg # of iterations =  4.5
 
     Magnetic moment per site:
     atom:    1    charge:    0.8361    magn:    0.0457    constr:    0.0000
     atom:    2    charge:    0.8361    magn:    0.0457    constr:    0.0000
     atom:    3    charge:    0.8415    magn:   -0.0094    constr:    0.0000
     atom:    4    charge:    0.8389    magn:    0.0251    constr:    0.0000
     atom:    5    charge:    0.8389    magn:    0.0251    constr:    0.0000
     atom:    6    charge:    0.8415    magn:   -0.0094    constr:    0.0000
     atom:    7    charge:    0.4892    magn:   -0.0019    constr:    0.0000
     atom:    8    charge:    0.4898    magn:   -0.0019    constr:    0.0000
     atom:    9    charge:    0.4909    magn:    0.0001    constr:    0.0000
     atom:   10    charge:    0.4914    magn:   -0.0012    constr:    0.0000
     atom:   11    charge:    0.4919    magn:   -0.0012    constr:    0.0000
     atom:   12    charge:    0.4909    magn:    0.0001    constr:    0.0000
     atom:   13    charge:    6.4557    magn:    0.3583    constr:    0.0000

     total cpu time spent up to now is      444.2 secs

     The total energy is the sum of the following terms:

     one-electron contribution =    -689.41748367 Ry
     hartree contribution      =     348.99002638 Ry
     xc contribution           =     -30.79470697 Ry
     ewald contribution        =     268.46058250 Ry

     total energy              =    -102.76177389 Ry
     Harris-Foulkes estimate   =    -102.76177389 Ry
     estimated scf accuracy    <          3.9E-09 Ry

     total magnetization       =     1.00 Bohr mag/cell
     absolute magnetization    =     1.21 Bohr mag/cell

     iteration #  8     ecut=   120.00 Ry     beta=0.70
     CG style diagonalization
     ethr =  1.06E-11,  avg # of iterations =  4.5
 
     Magnetic moment per site:
     atom:    1    charge:    0.8361    magn:    0.0457    constr:    0.0000
     atom:    2    charge:    0.8361    magn:    0.0457    constr:    0.0000
     atom:    3    charge:    0.8415    magn:   -0.0094    constr:    0.0000
     atom:    4    charge:    0.8389    magn:    0.0251    constr:    0.0000
     atom:    5    charge:    0.8389    magn:    0.0251    constr:    0.0000
     atom:    6    charge:    0.8415    magn:   -0.0094    constr:    0.0000
     atom:    7    charge:    0.4892    magn:   -0.0019    constr:    0.0000
     atom:    8    charge:    0.4898    magn:   -0.0019    constr:    0.0000
     atom:    9    charge:    0.4909    magn:    0.0001    constr:    0.0000
     atom:   10    charge:    0.4914    magn:   -0.0012    constr:    0.0000
     atom:   11    charge:    0.4919    magn:   -0.0012    constr:    0.0000
     atom:   12    charge:    0.4909    magn:    0.0001    constr:    0.0000
     atom:   13    charge:    6.4557    magn:    0.3583    constr:    0.0000

     total cpu time spent up to now is      451.2 secs

     The total energy is the sum of the following terms:

     one-electron contribution =    -689.41765321 Ry
     hartree contribution      =     348.99002106 Ry
     xc contribution           =     -30.79470730 Ry
     ewald contribution        =     268.46058250 Ry

     total energy              =    -102.76177389 Ry
     Harris-Foulkes estimate   =    -102.76177389 Ry
     estimated scf accuracy    <          1.9E-10 Ry

     total magnetization       =     1.00 Bohr mag/cell
     absolute magnetization    =     1.21 Bohr mag/cell

     iteration #  9     ecut=   120.00 Ry     beta=0.70
     CG style diagonalization
     ethr =  5.27E-13,  avg # of iterations =  6.1
 
     Magnetic moment per site:
     atom:    1    charge:    0.8361    magn:    0.0457    constr:    0.0000
     atom:    2    charge:    0.8361    magn:    0.0457    constr:    0.0000
     atom:    3    charge:    0.8415    magn:   -0.0094    constr:    0.0000
     atom:    4    charge:    0.8389    magn:    0.0251    constr:    0.0000
     atom:    5    charge:    0.8389    magn:    0.0251    constr:    0.0000
     atom:    6    charge:    0.8415    magn:   -0.0094    constr:    0.0000
     atom:    7    charge:    0.4892    magn:   -0.0019    constr:    0.0000
     atom:    8    charge:    0.4898    magn:   -0.0019    constr:    0.0000
     atom:    9    charge:    0.4909    magn:    0.0001    constr:    0.0000
     atom:   10    charge:    0.4914    magn:   -0.0012    constr:    0.0000
     atom:   11    charge:    0.4919    magn:   -0.0012    constr:    0.0000
     atom:   12    charge:    0.4909    magn:    0.0001    constr:    0.0000
     atom:   13    charge:    6.4557    magn:    0.3583    constr:    0.0000

     total cpu time spent up to now is      460.3 secs

     The total energy is the sum of the following terms:

     one-electron contribution =    -689.41768410 Ry
     hartree contribution      =     348.99002186 Ry
     xc contribution           =     -30.79470795 Ry
     ewald contribution        =     268.46058250 Ry

     total energy              =    -102.76177389 Ry
     Harris-Foulkes estimate   =    -102.76177389 Ry
     estimated scf accuracy    <          4.4E-11 Ry

     total magnetization       =     1.00 Bohr mag/cell
     absolute magnetization    =     1.21 Bohr mag/cell

     iteration # 10     ecut=   120.00 Ry     beta=0.70
     CG style diagonalization
     ethr =  1.20E-13,  avg # of iterations =  4.3
 
     Magnetic moment per site:
     atom:    1    charge:    0.8361    magn:    0.0457    constr:    0.0000
     atom:    2    charge:    0.8361    magn:    0.0457    constr:    0.0000
     atom:    3    charge:    0.8415    magn:   -0.0094    constr:    0.0000
     atom:    4    charge:    0.8389    magn:    0.0251    constr:    0.0000
     atom:    5    charge:    0.8389    magn:    0.0251    constr:    0.0000
     atom:    6    charge:    0.8415    magn:   -0.0094    constr:    0.0000
     atom:    7    charge:    0.4892    magn:   -0.0019    constr:    0.0000
     atom:    8    charge:    0.4898    magn:   -0.0019    constr:    0.0000
     atom:    9    charge:    0.4909    magn:    0.0001    constr:    0.0000
     atom:   10    charge:    0.4914    magn:   -0.0012    constr:    0.0000
     atom:   11    charge:    0.4919    magn:   -0.0012    constr:    0.0000
     atom:   12    charge:    0.4909    magn:    0.0001    constr:    0.0000
     atom:   13    charge:    6.4557    magn:    0.3583    constr:    0.0000

     total cpu time spent up to now is      467.1 secs

     The total energy is the sum of the following terms:

     one-electron contribution =    -689.41766643 Ry
     hartree contribution      =     348.99002123 Ry
     xc contribution           =     -30.79470816 Ry
     ewald contribution        =     268.46058250 Ry

     total energy              =    -102.76177389 Ry
     Harris-Foulkes estimate   =    -102.76177389 Ry
     estimated scf accuracy    <          8.6E-12 Ry

     total magnetization       =     1.00 Bohr mag/cell
     absolute magnetization    =     1.21 Bohr mag/cell

     iteration # 11     ecut=   120.00 Ry     beta=0.70
     CG style diagonalization
     ethr =  1.00E-13,  avg # of iterations =  3.5
 
     Magnetic moment per site:
     atom:    1    charge:    0.8361    magn:    0.0457    constr:    0.0000
     atom:    2    charge:    0.8361    magn:    0.0457    constr:    0.0000
     atom:    3    charge:    0.8415    magn:   -0.0094    constr:    0.0000
     atom:    4    charge:    0.8389    magn:    0.0251    constr:    0.0000
     atom:    5    charge:    0.8389    magn:    0.0251    constr:    0.0000
     atom:    6    charge:    0.8415    magn:   -0.0094    constr:    0.0000
     atom:    7    charge:    0.4892    magn:   -0.0019    constr:    0.0000
     atom:    8    charge:    0.4898    magn:   -0.0019    constr:    0.0000
     atom:    9    charge:    0.4909    magn:    0.0001    constr:    0.0000
     atom:   10    charge:    0.4914    magn:   -0.0012    constr:    0.0000
     atom:   11    charge:    0.4919    magn:   -0.0012    constr:    0.0000
     atom:   12    charge:    0.4909    magn:    0.0001    constr:    0.0000
     atom:   13    charge:    6.4557    magn:    0.3583    constr:    0.0000

     total cpu time spent up to now is      472.8 secs

     The total energy is the sum of the following terms:

     one-electron contribution =    -689.41766565 Ry
     hartree contribution      =     348.99001862 Ry
     xc contribution           =     -30.79470809 Ry
     ewald contribution        =     268.46058250 Ry

     total energy              =    -102.76177389 Ry
     Harris-Foulkes estimate   =    -102.76177389 Ry
     estimated scf accuracy    <          1.0E-12 Ry

     total magnetization       =     1.00 Bohr mag/cell
     absolute magnetization    =     1.21 Bohr mag/cell

     iteration # 12     ecut=   120.00 Ry     beta=0.70
     CG style diagonalization
     ethr =  1.00E-13,  avg # of iterations =  3.4
 
     Magnetic moment per site:
     atom:    1    charge:    0.8361    magn:    0.0457    constr:    0.0000
     atom:    2    charge:    0.8361    magn:    0.0457    constr:    0.0000
     atom:    3    charge:    0.8415    magn:   -0.0094    constr:    0.0000
     atom:    4    charge:    0.8389    magn:    0.0251    constr:    0.0000
     atom:    5    charge:    0.8389    magn:    0.0251    constr:    0.0000
     atom:    6    charge:    0.8415    magn:   -0.0094    constr:    0.0000
     atom:    7    charge:    0.4892    magn:   -0.0019    constr:    0.0000
     atom:    8    charge:    0.4898    magn:   -0.0019    constr:    0.0000
     atom:    9    charge:    0.4909    magn:    0.0001    constr:    0.0000
     atom:   10    charge:    0.4914    magn:   -0.0012    constr:    0.0000
     atom:   11    charge:    0.4919    magn:   -0.0012    constr:    0.0000
     atom:   12    charge:    0.4909    magn:    0.0001    constr:    0.0000
     atom:   13    charge:    6.4557    magn:    0.3583    constr:    0.0000

     total cpu time spent up to now is      478.3 secs

     End of self-consistent calculation

 ------ SPIN UP ------------


          k = 0.0000 0.0000 0.0000 (599244 PWs)   bands (ev):

   -21.2103 -18.6139 -18.3984 -18.2059 -14.7017 -14.6921 -12.6805 -10.9327
   -10.8795 -10.1520  -9.9299  -9.1995  -8.0737  -8.0706  -7.2087  -6.6062
    -6.4388  -6.2318  -5.9638  -1.3557  -1.0048  -0.1355   0.2052   0.2663
     0.2735   0.3295   0.4213   0.4550   0.6342   0.6468   0.7118   0.7144
     0.7237   0.7248   0.8085   0.8261   0.8342   0.8582   0.8620   0.8938

     occupation numbers 
     1.0000   1.0000   1.0000   1.0000   1.0000   1.0000   1.0000   1.0000
     1.0000   1.0000   1.0000   1.0000   1.0000   1.0000   1.0000   1.0000
     1.0000   1.0000   1.0000   0.0000   0.0000   0.0000   0.0000   0.0000
     0.0000   0.0000   0.0000   0.0000   0.0000   0.0000   0.0000   0.0000
     0.0000   0.0000   0.0000   0.0000   0.0000   0.0000   0.0000   0.0000

 ------ SPIN DOWN ----------


          k = 0.0000 0.0000 0.0000 (599244 PWs)   bands (ev):

   -21.0530 -18.3206 -18.1604 -18.0178 -14.6108 -14.5662 -12.6457 -10.8663
   -10.8131 -10.0830  -9.9234  -8.7985  -8.0447  -8.0238  -6.5526  -6.4750
    -6.2909  -5.8396  -5.4681  -0.8346  -0.7671  -0.1242   0.2274   0.2735
     0.2770   0.3360   0.4221   0.4637   0.6437   0.6497   0.7129   0.7191
     0.7249   0.7286   0.8144   0.8336   0.8348   0.8591   0.8633   0.8945

     occupation numbers 
     1.0000   1.0000   1.0000   1.0000   1.0000   1.0000   1.0000   1.0000
     1.0000   1.0000   1.0000   1.0000   1.0000   1.0000   1.0000   1.0000
     1.0000   1.0000   0.0000   0.0000   0.0000   0.0000   0.0000   0.0000
     0.0000   0.0000   0.0000   0.0000   0.0000   0.0000   0.0000   0.0000
     0.0000   0.0000   0.0000   0.0000   0.0000   0.0000   0.0000   0.0000

     highest occupied, lowest unoccupied level (ev):    -5.8396   -5.4681

     The total energy is the sum of the following terms:

     one-electron contribution =    -689.41766789 Ry
     hartree contribution      =     348.99001971 Ry
     xc contribution           =     -30.79470822 Ry
     ewald contribution        =     268.46058250 Ry

!    total energy              =    -102.76177389 Ry
     Harris-Foulkes estimate   =    -102.76177389 Ry
     estimated scf accuracy    <          5.1E-13 Ry

     The total energy is the sum of the following terms:

     one-electron contribution =    -689.41766789 Ry
     hartree contribution      =     348.99001971 Ry
     xc contribution           =     -30.79470822 Ry
     ewald contribution        =     268.46058250 Ry

     total magnetization       =     1.00 Bohr mag/cell
     absolute magnetization    =     1.21 Bohr mag/cell

     convergence has been achieved in  12 iterations
 
     Using Hirshfeld
        Amplitude [Ry a.u.] :  1.1821E-01
        Acceptor Fragment start :          13
        Acceptor Fragment end   :          13
        Donor Fragment start :           1
        Donor Fragment end   :          12
 
 
     Using Hirshfeld
        Amplitude [Ry a.u.] :  1.1821E-01
        Acceptor Fragment start :          13
        Acceptor Fragment end   :          13
        Donor Fragment start :           1
        Donor Fragment end   :          12
 
     E field correction              : -0.2600625334361438E+01 Ry    
 
     Donor charge                    :      0.6603803321228234 e     
     Acceptor charge                 :     -0.3396190101825116 e     
     Difference of charges           :      0.9999993423053333 e     

     Writing output data file left.save
 
     init_run     :     37.04s CPU     37.04s WALL (       1 calls)
     electrons    :    424.33s CPU    424.33s WALL (       3 calls)
     update_pot   :      1.57s CPU      1.57s WALL (       2 calls)

     Called by init_run:
     wfcinit      :      6.39s CPU      6.39s WALL (       1 calls)
     potinit      :      1.85s CPU      1.85s WALL (       1 calls)

     Called by electrons:
     c_bands      :    329.28s CPU    329.28s WALL (      46 calls)
     sum_band     :     16.93s CPU     16.93s WALL (      46 calls)
     v_of_rho     :     36.78s CPU     36.78s WALL (      49 calls)
     v_h          :      0.64s CPU      0.64s WALL (      49 calls)
     v_xc         :     36.14s CPU     36.14s WALL (      49 calls)
     mix_rho      :      1.88s CPU      1.88s WALL (      46 calls)

     Called by c_bands:
     init_us_2    :      0.85s CPU      0.85s WALL (     186 calls)
     rcgdiagg     :    286.82s CPU    286.82s WALL (     100 calls)
     wfcrot       :     44.15s CPU     44.15s WALL (      96 calls)

     Called by sum_band:

     Called by *cgdiagg:
     h_psi        :    284.16s CPU    284.15s WALL (   18023 calls)
     rdiaghg      :      6.96s CPU      6.96s WALL (      96 calls)
     rdiaghg:chol :      0.54s CPU      0.54s WALL (      96 calls)
     rdiaghg:inve :      0.10s CPU      0.10s WALL (      96 calls)
     rdiaghg:para :      0.51s CPU      0.52s WALL (     192 calls)

     Called by h_psi:
     h_psi:vloc   :    245.40s CPU    245.40s WALL (   18023 calls)
     h_psi:vnl    :     38.35s CPU     38.34s WALL (   18023 calls)
     add_vuspsi   :     24.67s CPU     24.69s WALL (   18023 calls)

     General routines
     calbec       :     18.85s CPU     18.88s WALL (   35950 calls)
     fft          :     27.46s CPU     27.46s WALL (    2891 calls)
     fftw         :    230.37s CPU    230.39s WALL (   41870 calls)
 
     Parallel routines
     fft_scatter  :    101.29s CPU    101.31s WALL (   44761 calls)
 
     PWSCF        :  8m59.48s CPU     8m59.48s WALL

 
   This run was terminated on:  18: 2:32  24Aug2015            

=------------------------------------------------------------------------------=
   JOB DONE.
=------------------------------------------------------------------------------=
2015-08-24 18:02:49.411 (INFO ) [0xfffb0bfc410] CET-62040-73371-128:1298176:ibm.runjob.client.Job: exited with status 0
2015-08-24 18:02:49.411 (INFO ) [0xfffb0bfc410] tatu.runjob.client: task exited with status 0
2015-08-24 18:02:49.412 (INFO ) [0xfffb06a34e0] 28728:tatu.runjob.monitor: monitor terminating
2015-08-24 18:02:49.416 (INFO ) [0xfffb0bfc410] tatu.runjob.client: monitor completed
