2015-08-22 20:18:58.327 (INFO ) [0xfff7ed3c410] ibm.runjob.AbstractOptions: using properties file /bgsys/local/etc/bg.properties
2015-08-22 20:18:58.334 (INFO ) [0xfff7ed3c410] ibm.runjob.AbstractOptions: max open file descriptors: 65536
2015-08-22 20:18:58.334 (INFO ) [0xfff7ed3c410] ibm.runjob.AbstractOptions: core file limit: 18446744073709551615
2015-08-22 20:18:58.335 (INFO ) [0xfff7ed3c410] 16669:tatu.runjob.client: scheduler job id is 567082
2015-08-22 20:18:58.340 (INFO ) [0xfffa08434e0] 16669:tatu.runjob.monitor: monitor started
2015-08-22 20:19:02.141 (INFO ) [0xfffa08434e0] 16669:tatu.runjob.monitor: task record 1236789 created
2015-08-22 20:19:02.142 (INFO ) [0xfff7ed3c410] CET-20400-31731-128:16669:ibm.runjob.client.options.Parser: set local socket to runjob_mux from properties file
2015-08-22 20:19:05.068 (INFO ) [0xfff7ed3c410] CET-20400-31731-128:1295561:ibm.runjob.client.Job: job 1295561 started

     Program PWSCF v.5.1.1 starts on 22Aug2015 at 20:19: 5 

     This program is part of the open-source Quantum ESPRESSO suite
     for quantum simulation of materials; please cite
         "P. Giannozzi et al., J. Phys.:Condens. Matter 21 395502 (2009);
          URL http://www.quantum-espresso.org", 
     in publications or presentations arising from this work. More details at
     http://www.quantum-espresso.org/quote

     Parallel version (MPI & OpenMP), running on    1024 processor cores
     Number of MPI processes:              1024
     Threads/MPI process:                     1
     R & G space division:  proc/nbgrp/npool/nimage =    1024
     Waiting for input...
     Reading input from standard input

     Current dimensions of program PWSCF are:
     Max number of different atomic species (ntypx) = 10
     Max number of k-points (npk) =  40000
     Max angular momentum in pseudopotentials (lmaxx) =  3
               file C.pbe-mt_fhi.UPF: wavefunction(s)  4f renormalized
               file H.pbe-mt_fhi.UPF: wavefunction(s)  2p 4f renormalized
               file Cl.pbe-mt_fhi.UPF: wavefunction(s)  4f renormalized

     gamma-point specific algorithms are used
     Message from routine setup:
     the system is metallic, specify occupations

     Subspace diagonalization in iterative solution of the eigenvalue problem:
     scalapack distributed-memory algorithm (size of sub-group: 22* 22 procs)

 
     Parallelization info
     --------------------
     sticks:   dense  smooth     PW     G-vecs:    dense   smooth      PW
     Min          44      44      9                 7224     7224     878
     Max          46      46     12                 7274     7274     936
     Sum       45965   45965  11513              7418917  7418917  927969
     Tot       22983   22983   5757
 
     Generating pointlists ...
     new r_m :   0.0263 (alat units)  0.8450 (a.u.) for type    1
     new r_m :   0.0263 (alat units)  0.8450 (a.u.) for type    2
     new r_m :   0.0747 (alat units)  2.4011 (a.u.) for type    3
2015-08-22 20:19:11.280 (INFO ) [0xfffa08434e0] 16669:tatu.runjob.monitor: tracklib completed


     bravais-lattice index     =            1
     lattice parameter (alat)  =      32.1253  a.u.
     unit-cell volume          =   33154.5678 (a.u.)^3
     number of atoms/cell      =           13
     number of atomic types    =            3
     number of electrons       =        37.00 (up:  19.00, down:  18.00)
     number of Kohn-Sham states=           40
     kinetic-energy cutoff     =     140.0000  Ry
     charge density cutoff     =     560.0000  Ry
     convergence threshold     =      1.0E-10
     mixing beta               =       0.7000
     number of iterations used =            8  plain     mixing
     Exchange-correlation      = PBE ( 1  4  3  4 0 0)
     Assuming isolated system, Martyna-Tuckerman method


     celldm(1)=  32.125344  celldm(2)=   0.000000  celldm(3)=   0.000000
     celldm(4)=   0.000000  celldm(5)=   0.000000  celldm(6)=   0.000000

     crystal axes: (cart. coord. in units of alat)
               a(1) = (   1.000000   0.000000   0.000000 )  
               a(2) = (   0.000000   1.000000   0.000000 )  
               a(3) = (   0.000000   0.000000   1.000000 )  

     reciprocal axes: (cart. coord. in units 2 pi/alat)
               b(1) = (  1.000000  0.000000  0.000000 )  
               b(2) = (  0.000000  1.000000  0.000000 )  
               b(3) = (  0.000000  0.000000  1.000000 )  


     PseudoPot. # 1 for  C read from file:
     ./C.pbe-mt_fhi.UPF
     MD5 check sum: 058ca341f9d6d5327d9962fd88a91b65
     Pseudo is Norm-conserving, Zval =  4.0
     Generated using FHI98PP, converted with fhi2upf.x v.5.0.2
     Using radial grid of  461 points,  3 beta functions with: 
                l(1) =   0
                l(2) =   1
                l(3) =   3

     PseudoPot. # 2 for  H read from file:
     ./H.pbe-mt_fhi.UPF
     MD5 check sum: a19bd5488733b3d98581df861506e80d
     Pseudo is Norm-conserving, Zval =  1.0
     Generated using FHI98PP, converted with fhi2upf.x v.5.0.2
     Using radial grid of  387 points,  3 beta functions with: 
                l(1) =   0
                l(2) =   1
                l(3) =   3

     PseudoPot. # 3 for Cl read from file:
     ./Cl.pbe-mt_fhi.UPF
     MD5 check sum: 2690b95bbfe21454a1a3af22474751ef
     Pseudo is Norm-conserving, Zval =  7.0
     Generated using FHI98PP, converted with fhi2upf.x v.5.0.2
     Using radial grid of  503 points,  3 beta functions with: 
                l(1) =   0
                l(2) =   1
                l(3) =   3

     atomic species   valence    mass     pseudopotential
        C              4.00    12.01070      C( 1.00)
        H              1.00     1.00794      H( 1.00)
        Cl             7.00     1.00000     Cl( 1.00)

     Starting magnetic structure 
     atomic species   magnetization
        C            0.000
        H            0.000
        Cl           0.000

     No symmetry found


                                    s                        frac. trans.

      isym =  1     identity                                     

 cryst.   s( 1) = (     1          0          0      )
                  (     0          1          0      )
                  (     0          0          1      )

 cart.    s( 1) = (  1.0000000  0.0000000  0.0000000 )
                  (  0.0000000  1.0000000  0.0000000 )
                  (  0.0000000  0.0000000  1.0000000 )


     point group C_1 (1)    
     there are  1 classes
     the character table:

       E    
A      1.00

     the symmetry operations in each class:
     E        1

   Cartesian axes

     site n.     atom                  positions (alat units)
         1           C   tau(   1) = (   0.0000000   0.0821765   0.0000000  )
         2           C   tau(   2) = (   0.0711647   0.0410882   0.0000000  )
         3           C   tau(   3) = (   0.0711647  -0.0410882   0.0000000  )
         4           C   tau(   4) = (   0.0000000  -0.0821765   0.0000000  )
         5           C   tau(   5) = (  -0.0711647  -0.0410882   0.0000000  )
         6           C   tau(   6) = (  -0.0711647   0.0410882   0.0000000  )
         7           H   tau(   7) = (   0.0000000   0.1459412   0.0000000  )
         8           H   tau(   8) = (   0.1263882   0.0729706   0.0000000  )
         9           H   tau(   9) = (   0.1263882  -0.0729706   0.0000000  )
        10           H   tau(  10) = (   0.0000000  -0.1459412   0.0000000  )
        11           H   tau(  11) = (  -0.1263882  -0.0729706   0.0000000  )
        12           H   tau(  12) = (  -0.1263882   0.0729706   0.0000000  )
        13           Cl  tau(  13) = (   0.0355824   0.0616324   0.1764706  )

   Crystallographic axes

     site n.     atom                  positions (cryst. coord.)
         1           C   tau(   1) = (  0.0000000  0.0821765  0.0000000  )
         2           C   tau(   2) = (  0.0711647  0.0410882  0.0000000  )
         3           C   tau(   3) = (  0.0711647 -0.0410882  0.0000000  )
         4           C   tau(   4) = (  0.0000000 -0.0821765  0.0000000  )
         5           C   tau(   5) = ( -0.0711647 -0.0410882  0.0000000  )
         6           C   tau(   6) = ( -0.0711647  0.0410882  0.0000000  )
         7           H   tau(   7) = (  0.0000000  0.1459412  0.0000000  )
         8           H   tau(   8) = (  0.1263882  0.0729706  0.0000000  )
         9           H   tau(   9) = (  0.1263882 -0.0729706  0.0000000  )
        10           H   tau(  10) = (  0.0000000 -0.1459412  0.0000000  )
        11           H   tau(  11) = ( -0.1263882 -0.0729706  0.0000000  )
        12           H   tau(  12) = ( -0.1263882  0.0729706  0.0000000  )
        13           Cl  tau(  13) = (  0.0355824  0.0616324  0.1764706  )

     number of k points=     2
                       cart. coord. in units 2pi/alat
        k(    1) = (   0.0000000   0.0000000   0.0000000), wk =   1.0000000
        k(    2) = (   0.0000000   0.0000000   0.0000000), wk =   1.0000000

                       cryst. coord.
        k(    1) = (   0.0000000   0.0000000   0.0000000), wk =   1.0000000
        k(    2) = (   0.0000000   0.0000000   0.0000000), wk =   1.0000000

     Dense  grid:  3709459 G-vectors     FFT dimensions: ( 252, 252, 252)

     Largest allocated arrays     est. size (Mb)     dimensions
        Kohn-Sham Wavefunctions         0.28 Mb     (     464,   40)
        NL pseudopotentials             1.01 Mb     (     464,  143)
        Each V/rho on FFT grid          1.94 Mb     (   63504,   2)
        Each G-vector array             0.03 Mb     (    3616)
        G-vector shells                 0.01 Mb     (    1655)
     Largest temporary arrays     est. size (Mb)     dimensions
        Each subspace H/S matrix        0.00 Mb     (       1,    1)
        Each <psi_i|beta_j> matrix      0.04 Mb     (     143,   40)
        Arrays for rho mixing           7.75 Mb     (   63504,    8)
 
     Using Hirshfeld
        Amplitude [Ry a.u.] : -3.8911E-01
        Acceptor Fragment start :          13
        Acceptor Fragment end   :          13
        Donor Fragment start :           1
        Donor Fragment end   :          12
 

     Initial potential from superposition of free atoms
     Check: negative starting charge=(component1):   -0.004566
     Check: negative starting charge=(component2):   -0.004566

     starting charge   36.99968, renormalised to   37.00000

     negative rho (up, down):  4.566E-03 4.566E-03
     Starting wfc are  208 randomized atomic wfcs

     total cpu time spent up to now is       32.0 secs

     per-process dynamical memory:    65.1 Mb

     Self-consistent Calculation

     iteration #  1     ecut=   140.00 Ry     beta=0.70
     CG style diagonalization
     ethr =  1.00E-02,  avg # of iterations =  3.7

     negative rho (up, down):  1.197E-03 1.225E-03
 
     Magnetic moment per site:
     atom:    1    charge:    1.0252    magn:    0.0313    constr:    0.0000
     atom:    2    charge:    1.0249    magn:    0.0317    constr:    0.0000
     atom:    3    charge:    1.0236    magn:    0.0311    constr:    0.0000
     atom:    4    charge:    1.0233    magn:    0.0301    constr:    0.0000
     atom:    5    charge:    1.0232    magn:    0.0298    constr:    0.0000
     atom:    6    charge:    1.0236    magn:    0.0309    constr:    0.0000
     atom:    7    charge:    0.4444    magn:    0.0013    constr:    0.0000
     atom:    8    charge:    0.4446    magn:    0.0012    constr:    0.0000
     atom:    9    charge:    0.4445    magn:    0.0012    constr:    0.0000
     atom:   10    charge:    0.4439    magn:    0.0011    constr:    0.0000
     atom:   11    charge:    0.4443    magn:    0.0013    constr:    0.0000
     atom:   12    charge:    0.4444    magn:    0.0011    constr:    0.0000
     atom:   13    charge:    3.1676    magn:    0.0007    constr:    0.0000

     total cpu time spent up to now is       41.2 secs

     The total energy is the sum of the following terms:

     one-electron contribution =    -729.49272358 Ry
     hartree contribution      =     372.59064060 Ry
     xc contribution           =     -31.51538702 Ry
     ewald contribution        =     268.46058250 Ry

     total energy              =    -103.22832194 Ry
     Harris-Foulkes estimate   =    -117.37011622 Ry
     estimated scf accuracy    <      16.76413235 Ry

     total magnetization       =     1.00 Bohr mag/cell
     absolute magnetization    =     1.00 Bohr mag/cell

     iteration #  2     ecut=   140.00 Ry     beta=0.70
     CG style diagonalization
     ethr =  1.00E-02,  avg # of iterations =  9.7

     negative rho (up, down):  7.252E-04 7.588E-04
 
     Magnetic moment per site:
     atom:    1    charge:    0.8985    magn:    0.0313    constr:    0.0000
     atom:    2    charge:    0.8985    magn:    0.0319    constr:    0.0000
     atom:    3    charge:    0.8926    magn:    0.0279    constr:    0.0000
     atom:    4    charge:    0.8904    magn:    0.0261    constr:    0.0000
     atom:    5    charge:    0.8903    magn:    0.0258    constr:    0.0000
     atom:    6    charge:    0.8924    magn:    0.0277    constr:    0.0000
     atom:    7    charge:    0.4425    magn:    0.0054    constr:    0.0000
     atom:    8    charge:    0.4427    magn:    0.0056    constr:    0.0000
     atom:    9    charge:    0.4330    magn:    0.0029    constr:    0.0000
     atom:   10    charge:    0.4308    magn:    0.0018    constr:    0.0000
     atom:   11    charge:    0.4312    magn:    0.0020    constr:    0.0000
     atom:   12    charge:    0.4329    magn:    0.0027    constr:    0.0000
     atom:   13    charge:    5.4080    magn:    0.0028    constr:    0.0000

     total cpu time spent up to now is       53.2 secs

     The total energy is the sum of the following terms:

     one-electron contribution =    -565.89158677 Ry
     hartree contribution      =     347.50442834 Ry
     xc contribution           =     -30.26666233 Ry
     ewald contribution        =     268.46058250 Ry

     total energy              =     -85.54433036 Ry
     Harris-Foulkes estimate   =    -140.73213003 Ry
     estimated scf accuracy    <     204.61447730 Ry

     total magnetization       =     1.00 Bohr mag/cell
     absolute magnetization    =     1.12 Bohr mag/cell

     iteration #  3     ecut=   140.00 Ry     beta=0.70
     CG style diagonalization
     ethr =  1.00E-02,  avg # of iterations =  9.2

     negative rho (up, down):  3.781E-04 4.177E-04
 
     Magnetic moment per site:
     atom:    1    charge:    0.8823    magn:    0.0219    constr:    0.0000
     atom:    2    charge:    0.8810    magn:    0.0234    constr:    0.0000
     atom:    3    charge:    0.8764    magn:    0.0207    constr:    0.0000
     atom:    4    charge:    0.8719    magn:    0.0160    constr:    0.0000
     atom:    5    charge:    0.8731    magn:    0.0177    constr:    0.0000
     atom:    6    charge:    0.8771    magn:    0.0219    constr:    0.0000
     atom:    7    charge:    0.4634    magn:    0.0025    constr:    0.0000
     atom:    8    charge:    0.4634    magn:    0.0025    constr:    0.0000
     atom:    9    charge:    0.4599    magn:    0.0015    constr:    0.0000
     atom:   10    charge:    0.4609    magn:    0.0006    constr:    0.0000
     atom:   11    charge:    0.4606    magn:    0.0004    constr:    0.0000
     atom:   12    charge:    0.4598    magn:    0.0012    constr:    0.0000
     atom:   13    charge:    5.6300    magn:    0.2964    constr:    0.0000

     total cpu time spent up to now is       64.6 secs

     The total energy is the sum of the following terms:

     one-electron contribution =    -703.03574908 Ry
     hartree contribution      =     349.80237237 Ry
     xc contribution           =     -30.53682554 Ry
     ewald contribution        =     268.46058250 Ry

     total energy              =    -114.36797753 Ry
     Harris-Foulkes estimate   =    -114.50259347 Ry
     estimated scf accuracy    <       0.55619741 Ry

     total magnetization       =     1.00 Bohr mag/cell
     absolute magnetization    =     1.10 Bohr mag/cell

     iteration #  4     ecut=   140.00 Ry     beta=0.70
     CG style diagonalization
     ethr =  1.50E-03,  avg # of iterations =  4.0

     negative rho (up, down):  2.743E-04 2.572E-04
 
     Magnetic moment per site:
     atom:    1    charge:    0.8561    magn:    0.0120    constr:    0.0000
     atom:    2    charge:    0.8576    magn:    0.0121    constr:    0.0000
     atom:    3    charge:    0.8531    magn:    0.0117    constr:    0.0000
     atom:    4    charge:    0.8486    magn:    0.0094    constr:    0.0000
     atom:    5    charge:    0.8483    magn:    0.0100    constr:    0.0000
     atom:    6    charge:    0.8504    magn:    0.0116    constr:    0.0000
     atom:    7    charge:    0.4842    magn:    0.0004    constr:    0.0000
     atom:    8    charge:    0.4853    magn:    0.0012    constr:    0.0000
     atom:    9    charge:    0.4853    magn:   -0.0006    constr:    0.0000
     atom:   10    charge:    0.4868    magn:   -0.0006    constr:    0.0000
     atom:   11    charge:    0.4862    magn:   -0.0013    constr:    0.0000
     atom:   12    charge:    0.4859    magn:   -0.0005    constr:    0.0000
     atom:   13    charge:    5.7500    magn:    0.5975    constr:    0.0000

     total cpu time spent up to now is       70.4 secs

     The total energy is the sum of the following terms:

     one-electron contribution =    -701.52100462 Ry
     hartree contribution      =     349.98149153 Ry
     xc contribution           =     -30.60358946 Ry
     ewald contribution        =     268.46058250 Ry

     total energy              =    -114.42075224 Ry
     Harris-Foulkes estimate   =    -114.45534050 Ry
     estimated scf accuracy    <       0.20595216 Ry

     total magnetization       =     1.00 Bohr mag/cell
     absolute magnetization    =     1.07 Bohr mag/cell

     iteration #  5     ecut=   140.00 Ry     beta=0.70
     CG style diagonalization
     ethr =  5.57E-04,  avg # of iterations =  3.3

     negative rho (up, down):  2.852E-04 1.733E-04
 
     Magnetic moment per site:
     atom:    1    charge:    0.8413    magn:    0.0054    constr:    0.0000
     atom:    2    charge:    0.8403    magn:    0.0049    constr:    0.0000
     atom:    3    charge:    0.8403    magn:    0.0056    constr:    0.0000
     atom:    4    charge:    0.8446    magn:    0.0036    constr:    0.0000
     atom:    5    charge:    0.8454    magn:    0.0039    constr:    0.0000
     atom:    6    charge:    0.8410    magn:    0.0051    constr:    0.0000
     atom:    7    charge:    0.4951    magn:   -0.0005    constr:    0.0000
     atom:    8    charge:    0.4960    magn:    0.0003    constr:    0.0000
     atom:    9    charge:    0.4965    magn:   -0.0014    constr:    0.0000
     atom:   10    charge:    0.4977    magn:   -0.0010    constr:    0.0000
     atom:   11    charge:    0.4973    magn:   -0.0017    constr:    0.0000
     atom:   12    charge:    0.4971    magn:   -0.0011    constr:    0.0000
     atom:   13    charge:    5.8216    magn:    0.8015    constr:    0.0000

     total cpu time spent up to now is       75.5 secs

     The total energy is the sum of the following terms:

     one-electron contribution =    -702.45143039 Ry
     hartree contribution      =     350.36888780 Ry
     xc contribution           =     -30.68688294 Ry
     ewald contribution        =     268.46058250 Ry

     total energy              =    -114.42798032 Ry
     Harris-Foulkes estimate   =    -114.43618248 Ry
     estimated scf accuracy    <       0.04439185 Ry

     total magnetization       =     1.00 Bohr mag/cell
     absolute magnetization    =     1.09 Bohr mag/cell

     iteration #  6     ecut=   140.00 Ry     beta=0.70
     CG style diagonalization
     ethr =  1.20E-04,  avg # of iterations =  3.7

     negative rho (up, down):  1.320E-04 9.772E-05
 
     Magnetic moment per site:
     atom:    1    charge:    0.8447    magn:    0.0030    constr:    0.0000
     atom:    2    charge:    0.8446    magn:    0.0028    constr:    0.0000
     atom:    3    charge:    0.8441    magn:    0.0015    constr:    0.0000
     atom:    4    charge:    0.8444    magn:    0.0002    constr:    0.0000
     atom:    5    charge:    0.8446    magn:    0.0007    constr:    0.0000
     atom:    6    charge:    0.8436    magn:    0.0014    constr:    0.0000
     atom:    7    charge:    0.4939    magn:   -0.0003    constr:    0.0000
     atom:    8    charge:    0.4946    magn:    0.0003    constr:    0.0000
     atom:    9    charge:    0.4944    magn:   -0.0012    constr:    0.0000
     atom:   10    charge:    0.4949    magn:   -0.0009    constr:    0.0000
     atom:   11    charge:    0.4948    magn:   -0.0015    constr:    0.0000
     atom:   12    charge:    0.4948    magn:   -0.0010    constr:    0.0000
     atom:   13    charge:    5.7727    magn:    0.8904    constr:    0.0000

     total cpu time spent up to now is       81.0 secs

     The total energy is the sum of the following terms:

     one-electron contribution =    -704.54120204 Ry
     hartree contribution      =     350.28016409 Ry
     xc contribution           =     -30.65465179 Ry
     ewald contribution        =     268.46058250 Ry

     total energy              =    -114.42851949 Ry
     Harris-Foulkes estimate   =    -114.44310314 Ry
     estimated scf accuracy    <       0.12746739 Ry

     total magnetization       =     1.00 Bohr mag/cell
     absolute magnetization    =     1.81 Bohr mag/cell

     iteration #  7     ecut=   140.00 Ry     beta=0.70
     CG style diagonalization
     ethr =  1.20E-04,  avg # of iterations =  3.0

     negative rho (up, down):  2.869E-04 2.097E-04
 
     Magnetic moment per site:
     atom:    1    charge:    0.8436    magn:   -0.0003    constr:    0.0000
     atom:    2    charge:    0.8440    magn:   -0.0007    constr:    0.0000
     atom:    3    charge:    0.8426    magn:   -0.0011    constr:    0.0000
     atom:    4    charge:    0.8420    magn:   -0.0027    constr:    0.0000
     atom:    5    charge:    0.8419    magn:   -0.0025    constr:    0.0000
     atom:    6    charge:    0.8419    magn:   -0.0013    constr:    0.0000
     atom:    7    charge:    0.4977    magn:   -0.0006    constr:    0.0000
     atom:    8    charge:    0.4982    magn:   -0.0001    constr:    0.0000
     atom:    9    charge:    0.4981    magn:   -0.0012    constr:    0.0000
     atom:   10    charge:    0.4977    magn:   -0.0009    constr:    0.0000
     atom:   11    charge:    0.4980    magn:   -0.0013    constr:    0.0000
     atom:   12    charge:    0.4982    magn:   -0.0010    constr:    0.0000
     atom:   13    charge:    5.8338    magn:    0.9822    constr:    0.0000

     total cpu time spent up to now is       85.7 secs

     The total energy is the sum of the following terms:

     one-electron contribution =    -702.80180174 Ry
     hartree contribution      =     350.83664704 Ry
     xc contribution           =     -30.75064437 Ry
     ewald contribution        =     268.46058250 Ry

     total energy              =    -114.43740617 Ry
     Harris-Foulkes estimate   =    -114.44159258 Ry
     estimated scf accuracy    <       0.01656808 Ry

     total magnetization       =     1.00 Bohr mag/cell
     absolute magnetization    =     1.20 Bohr mag/cell

     iteration #  8     ecut=   140.00 Ry     beta=0.70
     CG style diagonalization
     ethr =  4.48E-05,  avg # of iterations =  3.2

     negative rho (up, down):  3.483E-05 1.665E-05
 
     Magnetic moment per site:
     atom:    1    charge:    0.8455    magn:   -0.0044    constr:    0.0000
     atom:    2    charge:    0.8455    magn:   -0.0045    constr:    0.0000
     atom:    3    charge:    0.8450    magn:   -0.0060    constr:    0.0000
     atom:    4    charge:    0.8441    magn:   -0.0078    constr:    0.0000
     atom:    5    charge:    0.8441    magn:   -0.0076    constr:    0.0000
     atom:    6    charge:    0.8452    magn:   -0.0061    constr:    0.0000
     atom:    7    charge:    0.4966    magn:   -0.0003    constr:    0.0000
     atom:    8    charge:    0.4968    magn:   -0.0001    constr:    0.0000
     atom:    9    charge:    0.4960    magn:   -0.0007    constr:    0.0000
     atom:   10    charge:    0.4953    magn:   -0.0006    constr:    0.0000
     atom:   11    charge:    0.4957    magn:   -0.0008    constr:    0.0000
     atom:   12    charge:    0.4960    magn:   -0.0007    constr:    0.0000
     atom:   13    charge:    5.8012    magn:    1.1094    constr:    0.0000

     total cpu time spent up to now is       90.6 secs

     The total energy is the sum of the following terms:

     one-electron contribution =    -704.34427586 Ry
     hartree contribution      =     350.79375096 Ry
     xc contribution           =     -30.73810990 Ry
     ewald contribution        =     268.46058250 Ry

     total energy              =    -114.43667281 Ry
     Harris-Foulkes estimate   =    -114.44652657 Ry
     estimated scf accuracy    <       0.13454256 Ry

     total magnetization       =     1.00 Bohr mag/cell
     absolute magnetization    =     2.13 Bohr mag/cell

     iteration #  9     ecut=   140.00 Ry     beta=0.70
     CG style diagonalization
     ethr =  4.48E-05,  avg # of iterations =  3.1

     negative rho (up, down):  3.200E-07 4.148E-07
 
     Magnetic moment per site:
     atom:    1    charge:    0.8466    magn:   -0.0060    constr:    0.0000
     atom:    2    charge:    0.8467    magn:   -0.0059    constr:    0.0000
     atom:    3    charge:    0.8453    magn:   -0.0076    constr:    0.0000
     atom:    4    charge:    0.8445    magn:   -0.0104    constr:    0.0000
     atom:    5    charge:    0.8445    magn:   -0.0103    constr:    0.0000
     atom:    6    charge:    0.8452    magn:   -0.0076    constr:    0.0000
     atom:    7    charge:    0.4965    magn:   -0.0001    constr:    0.0000
     atom:    8    charge:    0.4967    magn:    0.0000    constr:    0.0000
     atom:    9    charge:    0.4954    magn:   -0.0002    constr:    0.0000
     atom:   10    charge:    0.4945    magn:   -0.0003    constr:    0.0000
     atom:   11    charge:    0.4949    magn:   -0.0003    constr:    0.0000
     atom:   12    charge:    0.4953    magn:   -0.0002    constr:    0.0000
     atom:   13    charge:    5.7967    magn:    1.1572    constr:    0.0000

     total cpu time spent up to now is       95.5 secs

     The total energy is the sum of the following terms:

     one-electron contribution =    -702.88318528 Ry
     hartree contribution      =     350.80365361 Ry
     xc contribution           =     -30.74109090 Ry
     ewald contribution        =     268.46058250 Ry

     total energy              =    -114.44346245 Ry
     Harris-Foulkes estimate   =    -114.44303158 Ry
     estimated scf accuracy    <       0.00091081 Ry

     total magnetization       =     1.00 Bohr mag/cell
     absolute magnetization    =     1.53 Bohr mag/cell

     iteration # 10     ecut=   140.00 Ry     beta=0.70
     CG style diagonalization
     ethr =  2.46E-06,  avg # of iterations =  4.4

     negative rho (up, down):  3.618E-06 3.869E-06
 
     Magnetic moment per site:
     atom:    1    charge:    0.8461    magn:   -0.0062    constr:    0.0000
     atom:    2    charge:    0.8461    magn:   -0.0061    constr:    0.0000
     atom:    3    charge:    0.8450    magn:   -0.0078    constr:    0.0000
     atom:    4    charge:    0.8440    magn:   -0.0107    constr:    0.0000
     atom:    5    charge:    0.8441    magn:   -0.0106    constr:    0.0000
     atom:    6    charge:    0.8451    magn:   -0.0078    constr:    0.0000
     atom:    7    charge:    0.4968    magn:    0.0000    constr:    0.0000
     atom:    8    charge:    0.4970    magn:    0.0001    constr:    0.0000
     atom:    9    charge:    0.4958    magn:   -0.0002    constr:    0.0000
     atom:   10    charge:    0.4949    magn:   -0.0001    constr:    0.0000
     atom:   11    charge:    0.4953    magn:   -0.0002    constr:    0.0000
     atom:   12    charge:    0.4957    magn:   -0.0001    constr:    0.0000
     atom:   13    charge:    5.8001    magn:    1.1596    constr:    0.0000

     total cpu time spent up to now is      101.8 secs

     The total energy is the sum of the following terms:

     one-electron contribution =    -702.79414928 Ry
     hartree contribution      =     350.82125464 Ry
     xc contribution           =     -30.74489814 Ry
     ewald contribution        =     268.46058250 Ry

     total energy              =    -114.44392966 Ry
     Harris-Foulkes estimate   =    -114.44379624 Ry
     estimated scf accuracy    <       0.00125555 Ry

     total magnetization       =     1.00 Bohr mag/cell
     absolute magnetization    =     1.54 Bohr mag/cell

     iteration # 11     ecut=   140.00 Ry     beta=0.70
     CG style diagonalization
     ethr =  2.46E-06,  avg # of iterations =  3.1

     negative rho (up, down):  4.560E-07 5.678E-07
 
     Magnetic moment per site:
     atom:    1    charge:    0.8458    magn:   -0.0065    constr:    0.0000
     atom:    2    charge:    0.8460    magn:   -0.0063    constr:    0.0000
     atom:    3    charge:    0.8449    magn:   -0.0083    constr:    0.0000
     atom:    4    charge:    0.8439    magn:   -0.0116    constr:    0.0000
     atom:    5    charge:    0.8438    magn:   -0.0116    constr:    0.0000
     atom:    6    charge:    0.8446    magn:   -0.0082    constr:    0.0000
     atom:    7    charge:    0.4969    magn:    0.0002    constr:    0.0000
     atom:    8    charge:    0.4971    magn:    0.0002    constr:    0.0000
     atom:    9    charge:    0.4959    magn:    0.0001    constr:    0.0000
     atom:   10    charge:    0.4951    magn:    0.0001    constr:    0.0000
     atom:   11    charge:    0.4954    magn:    0.0001    constr:    0.0000
     atom:   12    charge:    0.4958    magn:    0.0001    constr:    0.0000
     atom:   13    charge:    5.7973    magn:    1.1678    constr:    0.0000

     total cpu time spent up to now is      106.6 secs

     The total energy is the sum of the following terms:

     one-electron contribution =    -702.87381554 Ry
     hartree contribution      =     350.79959061 Ry
     xc contribution           =     -30.74177870 Ry
     ewald contribution        =     268.46058250 Ry

     total energy              =    -114.44434709 Ry
     Harris-Foulkes estimate   =    -114.44400621 Ry
     estimated scf accuracy    <       0.00062349 Ry

     total magnetization       =     1.00 Bohr mag/cell
     absolute magnetization    =     1.58 Bohr mag/cell

     iteration # 12     ecut=   140.00 Ry     beta=0.70
     CG style diagonalization
     ethr =  1.69E-06,  avg # of iterations =  3.2

     negative rho (up, down):  2.163E-07 2.534E-07
 
     Magnetic moment per site:
     atom:    1    charge:    0.8456    magn:   -0.0063    constr:    0.0000
     atom:    2    charge:    0.8458    magn:   -0.0061    constr:    0.0000
     atom:    3    charge:    0.8447    magn:   -0.0082    constr:    0.0000
     atom:    4    charge:    0.8438    magn:   -0.0114    constr:    0.0000
     atom:    5    charge:    0.8438    magn:   -0.0114    constr:    0.0000
     atom:    6    charge:    0.8445    magn:   -0.0080    constr:    0.0000
     atom:    7    charge:    0.4969    magn:    0.0002    constr:    0.0000
     atom:    8    charge:    0.4971    magn:    0.0002    constr:    0.0000
     atom:    9    charge:    0.4960    magn:    0.0001    constr:    0.0000
     atom:   10    charge:    0.4952    magn:    0.0001    constr:    0.0000
     atom:   11    charge:    0.4955    magn:    0.0001    constr:    0.0000
     atom:   12    charge:    0.4959    magn:    0.0001    constr:    0.0000
     atom:   13    charge:    5.7980    magn:    1.1617    constr:    0.0000

     total cpu time spent up to now is      111.5 secs

     The total energy is the sum of the following terms:

     one-electron contribution =    -702.86416752 Ry
     hartree contribution      =     350.79132771 Ry
     xc contribution           =     -30.74062694 Ry
     ewald contribution        =     268.46058250 Ry

     total energy              =    -114.44467581 Ry
     Harris-Foulkes estimate   =    -114.44462652 Ry
     estimated scf accuracy    <       0.00065734 Ry

     total magnetization       =     1.00 Bohr mag/cell
     absolute magnetization    =     1.57 Bohr mag/cell

     iteration # 13     ecut=   140.00 Ry     beta=0.70
     CG style diagonalization
     ethr =  1.69E-06,  avg # of iterations =  3.0

     negative rho (up, down):  1.117E-07 2.999E-06
 
     Magnetic moment per site:
     atom:    1    charge:    0.8452    magn:   -0.0052    constr:    0.0000
     atom:    2    charge:    0.8456    magn:   -0.0052    constr:    0.0000
     atom:    3    charge:    0.8445    magn:   -0.0059    constr:    0.0000
     atom:    4    charge:    0.8436    magn:   -0.0090    constr:    0.0000
     atom:    5    charge:    0.8433    magn:   -0.0087    constr:    0.0000
     atom:    6    charge:    0.8436    magn:   -0.0058    constr:    0.0000
     atom:    7    charge:    0.4970    magn:   -0.0002    constr:    0.0000
     atom:    8    charge:    0.4972    magn:   -0.0001    constr:    0.0000
     atom:    9    charge:    0.4961    magn:   -0.0005    constr:    0.0000
     atom:   10    charge:    0.4953    magn:   -0.0006    constr:    0.0000
     atom:   11    charge:    0.4958    magn:   -0.0007    constr:    0.0000
     atom:   12    charge:    0.4962    magn:   -0.0005    constr:    0.0000
     atom:   13    charge:    5.7975    magn:    1.1263    constr:    0.0000

     total cpu time spent up to now is      116.2 secs

     The total energy is the sum of the following terms:

     one-electron contribution =    -702.90243131 Ry
     hartree contribution      =     350.75392904 Ry
     xc contribution           =     -30.74113390 Ry
     ewald contribution        =     268.46058250 Ry

     total energy              =    -114.44022539 Ry
     Harris-Foulkes estimate   =    -114.44468531 Ry
     estimated scf accuracy    <       0.00055648 Ry

     total magnetization       =     1.00 Bohr mag/cell
     absolute magnetization    =     1.59 Bohr mag/cell

     iteration # 14     ecut=   140.00 Ry     beta=0.70
     CG style diagonalization
     ethr =  1.50E-06,  avg # of iterations =  3.7

     negative rho (up, down):  1.521E-06 1.180E-05
 
     Magnetic moment per site:
     atom:    1    charge:    0.8438    magn:   -0.0064    constr:    0.0000
     atom:    2    charge:    0.8440    magn:   -0.0061    constr:    0.0000
     atom:    3    charge:    0.8447    magn:   -0.0101    constr:    0.0000
     atom:    4    charge:    0.8430    magn:   -0.0135    constr:    0.0000
     atom:    5    charge:    0.8429    magn:   -0.0137    constr:    0.0000
     atom:    6    charge:    0.8439    magn:   -0.0099    constr:    0.0000
     atom:    7    charge:    0.4976    magn:    0.0007    constr:    0.0000
     atom:    8    charge:    0.4979    magn:    0.0006    constr:    0.0000
     atom:    9    charge:    0.4966    magn:    0.0007    constr:    0.0000
     atom:   10    charge:    0.4961    magn:    0.0008    constr:    0.0000
     atom:   11    charge:    0.4964    magn:    0.0009    constr:    0.0000
     atom:   12    charge:    0.4968    magn:    0.0007    constr:    0.0000
     atom:   13    charge:    5.7929    magn:    1.1832    constr:    0.0000

     total cpu time spent up to now is      121.7 secs

     The total energy is the sum of the following terms:

     one-electron contribution =    -702.78413703 Ry
     hartree contribution      =     350.78017901 Ry
     xc contribution           =     -30.75248037 Ry
     ewald contribution        =     268.46058250 Ry

     total energy              =    -114.42976262 Ry
     Harris-Foulkes estimate   =    -114.44281418 Ry
     estimated scf accuracy    <       0.00169292 Ry

     total magnetization       =     1.00 Bohr mag/cell
     absolute magnetization    =     1.48 Bohr mag/cell

     iteration # 15     ecut=   140.00 Ry     beta=0.70
     CG style diagonalization
     ethr =  1.50E-06,  avg # of iterations =  4.5

     negative rho (up, down):  3.017E-06 2.271E-06
 
     Magnetic moment per site:
     atom:    1    charge:    0.8447    magn:   -0.0049    constr:    0.0000
     atom:    2    charge:    0.8448    magn:   -0.0047    constr:    0.0000
     atom:    3    charge:    0.8453    magn:   -0.0087    constr:    0.0000
     atom:    4    charge:    0.8436    magn:   -0.0107    constr:    0.0000
     atom:    5    charge:    0.8436    magn:   -0.0107    constr:    0.0000
     atom:    6    charge:    0.8449    magn:   -0.0086    constr:    0.0000
     atom:    7    charge:    0.4971    magn:    0.0002    constr:    0.0000
     atom:    8    charge:    0.4973    magn:    0.0002    constr:    0.0000
     atom:    9    charge:    0.4961    magn:    0.0000    constr:    0.0000
     atom:   10    charge:    0.4955    magn:    0.0001    constr:    0.0000
     atom:   11    charge:    0.4958    magn:    0.0001    constr:    0.0000
     atom:   12    charge:    0.4961    magn:    0.0001    constr:    0.0000
     atom:   13    charge:    5.7947    magn:    1.1497    constr:    0.0000

     total cpu time spent up to now is      128.1 secs

     The total energy is the sum of the following terms:

     one-electron contribution =    -702.92447754 Ry
     hartree contribution      =     350.80358984 Ry
     xc contribution           =     -30.74163465 Ry
     ewald contribution        =     268.46058250 Ry

     total energy              =    -114.44668277 Ry
     Harris-Foulkes estimate   =    -114.44659934 Ry
     estimated scf accuracy    <       0.00164495 Ry

     total magnetization       =     1.00 Bohr mag/cell
     absolute magnetization    =     1.55 Bohr mag/cell

     iteration # 16     ecut=   140.00 Ry     beta=0.70
     CG style diagonalization
     ethr =  1.50E-06,  avg # of iterations =  3.3

     negative rho (up, down):  4.057E-06 1.765E-06
 
     Magnetic moment per site:
     atom:    1    charge:    0.8451    magn:   -0.0051    constr:    0.0000
     atom:    2    charge:    0.8451    magn:   -0.0049    constr:    0.0000
     atom:    3    charge:    0.8451    magn:   -0.0087    constr:    0.0000
     atom:    4    charge:    0.8439    magn:   -0.0108    constr:    0.0000
     atom:    5    charge:    0.8439    magn:   -0.0108    constr:    0.0000
     atom:    6    charge:    0.8452    magn:   -0.0086    constr:    0.0000
     atom:    7    charge:    0.4969    magn:    0.0001    constr:    0.0000
     atom:    8    charge:    0.4972    magn:    0.0002    constr:    0.0000
     atom:    9    charge:    0.4959    magn:    0.0000    constr:    0.0000
     atom:   10    charge:    0.4953    magn:    0.0001    constr:    0.0000
     atom:   11    charge:    0.4956    magn:    0.0001    constr:    0.0000
     atom:   12    charge:    0.4959    magn:    0.0001    constr:    0.0000
     atom:   13    charge:    5.7962    magn:    1.1524    constr:    0.0000

     total cpu time spent up to now is      133.1 secs

     The total energy is the sum of the following terms:

     one-electron contribution =    -702.84476674 Ry
     hartree contribution      =     350.81683289 Ry
     xc contribution           =     -30.74174819 Ry
     ewald contribution        =     268.46058250 Ry

     total energy              =    -114.44673083 Ry
     Harris-Foulkes estimate   =    -114.44691848 Ry
     estimated scf accuracy    <       0.00158504 Ry

     total magnetization       =     1.00 Bohr mag/cell
     absolute magnetization    =     1.52 Bohr mag/cell

     iteration # 17     ecut=   140.00 Ry     beta=0.70
     CG style diagonalization
     ethr =  1.50E-06,  avg # of iterations =  3.1

     negative rho (up, down):  3.709E-06 1.637E-06
 
     Magnetic moment per site:
     atom:    1    charge:    0.8454    magn:   -0.0061    constr:    0.0000
     atom:    2    charge:    0.8455    magn:   -0.0060    constr:    0.0000
     atom:    3    charge:    0.8442    magn:   -0.0066    constr:    0.0000
     atom:    4    charge:    0.8440    magn:   -0.0110    constr:    0.0000
     atom:    5    charge:    0.8441    magn:   -0.0111    constr:    0.0000
     atom:    6    charge:    0.8438    magn:   -0.0065    constr:    0.0000
     atom:    7    charge:    0.4971    magn:    0.0002    constr:    0.0000
     atom:    8    charge:    0.4973    magn:    0.0003    constr:    0.0000
     atom:    9    charge:    0.4962    magn:    0.0001    constr:    0.0000
     atom:   10    charge:    0.4955    magn:    0.0001    constr:    0.0000
     atom:   11    charge:    0.4958    magn:    0.0000    constr:    0.0000
     atom:   12    charge:    0.4962    magn:    0.0001    constr:    0.0000
     atom:   13    charge:    5.7976    magn:    1.1487    constr:    0.0000

     total cpu time spent up to now is      137.9 secs

     The total energy is the sum of the following terms:

     one-electron contribution =    -702.86732245 Ry
     hartree contribution      =     350.76790910 Ry
     xc contribution           =     -30.73864809 Ry
     ewald contribution        =     268.46058250 Ry

     total energy              =    -114.43925350 Ry
     Harris-Foulkes estimate   =    -114.44676535 Ry
     estimated scf accuracy    <       0.00092044 Ry

     total magnetization       =     1.00 Bohr mag/cell
     absolute magnetization    =     1.55 Bohr mag/cell

     iteration # 18     ecut=   140.00 Ry     beta=0.70
     CG style diagonalization
     ethr =  1.50E-06,  avg # of iterations =  3.9

     negative rho (up, down):  1.432E-08 8.773E-06
 
     Magnetic moment per site:
     atom:    1    charge:    0.8459    magn:   -0.0076    constr:    0.0000
     atom:    2    charge:    0.8459    magn:   -0.0074    constr:    0.0000
     atom:    3    charge:    0.8434    magn:   -0.0060    constr:    0.0000
     atom:    4    charge:    0.8439    magn:   -0.0122    constr:    0.0000
     atom:    5    charge:    0.8440    magn:   -0.0123    constr:    0.0000
     atom:    6    charge:    0.8434    magn:   -0.0058    constr:    0.0000
     atom:    7    charge:    0.4970    magn:    0.0003    constr:    0.0000
     atom:    8    charge:    0.4972    magn:    0.0003    constr:    0.0000
     atom:    9    charge:    0.4961    magn:    0.0002    constr:    0.0000
     atom:   10    charge:    0.4954    magn:    0.0002    constr:    0.0000
     atom:   11    charge:    0.4957    magn:    0.0002    constr:    0.0000
     atom:   12    charge:    0.4961    magn:    0.0002    constr:    0.0000
     atom:   13    charge:    5.7962    magn:    1.1638    constr:    0.0000

     total cpu time spent up to now is      143.6 secs

     The total energy is the sum of the following terms:

     one-electron contribution =    -702.92401801 Ry
     hartree contribution      =     350.75745053 Ry
     xc contribution           =     -30.75136241 Ry
     ewald contribution        =     268.46058250 Ry

     total energy              =    -114.43958522 Ry
     Harris-Foulkes estimate   =    -114.44432262 Ry
     estimated scf accuracy    <       0.00086334 Ry

     total magnetization       =     1.00 Bohr mag/cell
     absolute magnetization    =     1.58 Bohr mag/cell

     iteration # 19     ecut=   140.00 Ry     beta=0.70
     CG style diagonalization
     ethr =  1.50E-06,  avg # of iterations =  3.6

     negative rho (up, down):  3.008E-06 1.725E-06
 
     Magnetic moment per site:
     atom:    1    charge:    0.8445    magn:   -0.0044    constr:    0.0000
     atom:    2    charge:    0.8444    magn:   -0.0043    constr:    0.0000
     atom:    3    charge:    0.8447    magn:   -0.0096    constr:    0.0000
     atom:    4    charge:    0.8436    magn:   -0.0105    constr:    0.0000
     atom:    5    charge:    0.8434    magn:   -0.0104    constr:    0.0000
     atom:    6    charge:    0.8448    magn:   -0.0095    constr:    0.0000
     atom:    7    charge:    0.4973    magn:    0.0002    constr:    0.0000
     atom:    8    charge:    0.4976    magn:    0.0002    constr:    0.0000
     atom:    9    charge:    0.4963    magn:    0.0002    constr:    0.0000
     atom:   10    charge:    0.4957    magn:    0.0003    constr:    0.0000
     atom:   11    charge:    0.4959    magn:    0.0002    constr:    0.0000
     atom:   12    charge:    0.4963    magn:    0.0002    constr:    0.0000
     atom:   13    charge:    5.7992    magn:    1.1467    constr:    0.0000

     total cpu time spent up to now is      148.9 secs

     The total energy is the sum of the following terms:

     one-electron contribution =    -702.90917063 Ry
     hartree contribution      =     350.80006869 Ry
     xc contribution           =     -30.74602758 Ry
     ewald contribution        =     268.46058250 Ry

     total energy              =    -114.42868497 Ry
     Harris-Foulkes estimate   =    -114.44211384 Ry
     estimated scf accuracy    <       0.00128555 Ry

     total magnetization       =     1.00 Bohr mag/cell
     absolute magnetization    =     1.57 Bohr mag/cell

     iteration # 20     ecut=   140.00 Ry     beta=0.70
     CG style diagonalization
     ethr =  1.50E-06,  avg # of iterations =  4.3

     negative rho (up, down):  2.667E-06 1.699E-06
 
     Magnetic moment per site:
     atom:    1    charge:    0.8443    magn:   -0.0035    constr:    0.0000
     atom:    2    charge:    0.8442    magn:   -0.0034    constr:    0.0000
     atom:    3    charge:    0.8450    magn:   -0.0100    constr:    0.0000
     atom:    4    charge:    0.8433    magn:   -0.0096    constr:    0.0000
     atom:    5    charge:    0.8434    magn:   -0.0094    constr:    0.0000
     atom:    6    charge:    0.8451    magn:   -0.0100    constr:    0.0000
     atom:    7    charge:    0.4973    magn:    0.0001    constr:    0.0000
     atom:    8    charge:    0.4976    magn:    0.0002    constr:    0.0000
     atom:    9    charge:    0.4962    magn:    0.0001    constr:    0.0000
     atom:   10    charge:    0.4956    magn:    0.0002    constr:    0.0000
     atom:   11    charge:    0.4959    magn:    0.0001    constr:    0.0000
     atom:   12    charge:    0.4963    magn:    0.0002    constr:    0.0000
     atom:   13    charge:    5.8005    magn:    1.1365    constr:    0.0000

     total cpu time spent up to now is      155.0 secs

     The total energy is the sum of the following terms:

     one-electron contribution =    -703.01574128 Ry
     hartree contribution      =     350.80206780 Ry
     xc contribution           =     -30.74623790 Ry
     ewald contribution        =     268.46058250 Ry

     total energy              =    -114.44713183 Ry
     Harris-Foulkes estimate   =    -114.44705469 Ry
     estimated scf accuracy    <       0.00039124 Ry

     total magnetization       =     1.00 Bohr mag/cell
     absolute magnetization    =     1.59 Bohr mag/cell

     iteration # 21     ecut=   140.00 Ry     beta=0.70
     CG style diagonalization
     ethr =  1.06E-06,  avg # of iterations =  3.1

     negative rho (up, down):  2.371E-06 1.822E-05
 
     Magnetic moment per site:
     atom:    1    charge:    0.8441    magn:   -0.0029    constr:    0.0000
     atom:    2    charge:    0.8441    magn:   -0.0028    constr:    0.0000
     atom:    3    charge:    0.8453    magn:   -0.0112    constr:    0.0000
     atom:    4    charge:    0.8433    magn:   -0.0094    constr:    0.0000
     atom:    5    charge:    0.8433    magn:   -0.0092    constr:    0.0000
     atom:    6    charge:    0.8454    magn:   -0.0111    constr:    0.0000
     atom:    7    charge:    0.4974    magn:    0.0001    constr:    0.0000
     atom:    8    charge:    0.4976    magn:    0.0001    constr:    0.0000
     atom:    9    charge:    0.4962    magn:    0.0002    constr:    0.0000
     atom:   10    charge:    0.4956    magn:    0.0002    constr:    0.0000
     atom:   11    charge:    0.4959    magn:    0.0002    constr:    0.0000
     atom:   12    charge:    0.4962    magn:    0.0002    constr:    0.0000
     atom:   13    charge:    5.8007    magn:    1.1368    constr:    0.0000

     total cpu time spent up to now is      159.8 secs

     The total energy is the sum of the following terms:

     one-electron contribution =    -703.03206631 Ry
     hartree contribution      =     350.82501745 Ry
     xc contribution           =     -30.75778474 Ry
     ewald contribution        =     268.46058250 Ry

     total energy              =    -114.44638716 Ry
     Harris-Foulkes estimate   =    -114.44734759 Ry
     estimated scf accuracy    <       0.00047702 Ry

     total magnetization       =     1.00 Bohr mag/cell
     absolute magnetization    =     1.58 Bohr mag/cell

     iteration # 22     ecut=   140.00 Ry     beta=0.70
     CG style diagonalization
     ethr =  1.06E-06,  avg # of iterations =  3.6

     negative rho (up, down):  2.258E-06 3.712E-05
 
     Magnetic moment per site:
     atom:    1    charge:    0.8441    magn:   -0.0028    constr:    0.0000
     atom:    2    charge:    0.8440    magn:   -0.0027    constr:    0.0000
     atom:    3    charge:    0.8454    magn:   -0.0114    constr:    0.0000
     atom:    4    charge:    0.8433    magn:   -0.0094    constr:    0.0000
     atom:    5    charge:    0.8433    magn:   -0.0092    constr:    0.0000
     atom:    6    charge:    0.8455    magn:   -0.0114    constr:    0.0000
     atom:    7    charge:    0.4974    magn:    0.0001    constr:    0.0000
     atom:    8    charge:    0.4976    magn:    0.0001    constr:    0.0000
     atom:    9    charge:    0.4962    magn:    0.0002    constr:    0.0000
     atom:   10    charge:    0.4956    magn:    0.0002    constr:    0.0000
     atom:   11    charge:    0.4959    magn:    0.0002    constr:    0.0000
     atom:   12    charge:    0.4962    magn:    0.0002    constr:    0.0000
     atom:   13    charge:    5.8007    magn:    1.1376    constr:    0.0000

     total cpu time spent up to now is      165.1 secs

     The total energy is the sum of the following terms:

     one-electron contribution =    -703.03367831 Ry
     hartree contribution      =     350.83077611 Ry
     xc contribution           =     -30.76154505 Ry
     ewald contribution        =     268.46058250 Ry

     total energy              =    -114.44720012 Ry
     Harris-Foulkes estimate   =    -114.44740958 Ry
     estimated scf accuracy    <       0.00109098 Ry

     total magnetization       =     1.00 Bohr mag/cell
     absolute magnetization    =     1.57 Bohr mag/cell

     iteration # 23     ecut=   140.00 Ry     beta=0.70
     CG style diagonalization
     ethr =  1.06E-06,  avg # of iterations =  3.1

     negative rho (up, down):  3.167E-06 3.858E-04
 
     Magnetic moment per site:
     atom:    1    charge:    0.8439    magn:   -0.0022    constr:    0.0000
     atom:    2    charge:    0.8439    magn:   -0.0021    constr:    0.0000
     atom:    3    charge:    0.8457    magn:   -0.0123    constr:    0.0000
     atom:    4    charge:    0.8432    magn:   -0.0092    constr:    0.0000
     atom:    5    charge:    0.8432    magn:   -0.0091    constr:    0.0000
     atom:    6    charge:    0.8459    magn:   -0.0123    constr:    0.0000
     atom:    7    charge:    0.4974    magn:    0.0001    constr:    0.0000
     atom:    8    charge:    0.4976    magn:    0.0001    constr:    0.0000
     atom:    9    charge:    0.4961    magn:    0.0003    constr:    0.0000
     atom:   10    charge:    0.4956    magn:    0.0003    constr:    0.0000
     atom:   11    charge:    0.4959    magn:    0.0003    constr:    0.0000
     atom:   12    charge:    0.4961    magn:    0.0003    constr:    0.0000
     atom:   13    charge:    5.8005    magn:    1.1369    constr:    0.0000

     total cpu time spent up to now is      169.9 secs

     The total energy is the sum of the following terms:

     one-electron contribution =    -703.03233440 Ry
     hartree contribution      =     350.85429926 Ry
     xc contribution           =     -30.77943401 Ry
     ewald contribution        =     268.46058250 Ry

     total energy              =    -114.44530601 Ry
     Harris-Foulkes estimate   =    -114.44724693 Ry
     estimated scf accuracy    <       0.00148517 Ry

     total magnetization       =     1.00 Bohr mag/cell
     absolute magnetization    =     1.56 Bohr mag/cell

     iteration # 24     ecut=   140.00 Ry     beta=0.70
     CG style diagonalization
     ethr =  1.06E-06,  avg # of iterations =  3.5

     negative rho (up, down):  2.560E-06 1.856E-05
 
     Magnetic moment per site:
     atom:    1    charge:    0.8443    magn:   -0.0037    constr:    0.0000
     atom:    2    charge:    0.8442    magn:   -0.0035    constr:    0.0000
     atom:    3    charge:    0.8453    magn:   -0.0102    constr:    0.0000
     atom:    4    charge:    0.8434    magn:   -0.0102    constr:    0.0000
     atom:    5    charge:    0.8435    magn:   -0.0102    constr:    0.0000
     atom:    6    charge:    0.8455    magn:   -0.0102    constr:    0.0000
     atom:    7    charge:    0.4973    magn:    0.0002    constr:    0.0000
     atom:    8    charge:    0.4976    magn:    0.0002    constr:    0.0000
     atom:    9    charge:    0.4961    magn:    0.0002    constr:    0.0000
     atom:   10    charge:    0.4956    magn:    0.0004    constr:    0.0000
     atom:   11    charge:    0.4958    magn:    0.0003    constr:    0.0000
     atom:   12    charge:    0.4961    magn:    0.0002    constr:    0.0000
     atom:   13    charge:    5.7981    magn:    1.1406    constr:    0.0000

     total cpu time spent up to now is      175.1 secs

     The total energy is the sum of the following terms:

     one-electron contribution =    -703.03664128 Ry
     hartree contribution      =     350.82223209 Ry
     xc contribution           =     -30.75788610 Ry
     ewald contribution        =     268.46058250 Ry

     total energy              =    -114.44533328 Ry
     Harris-Foulkes estimate   =    -114.44604698 Ry
     estimated scf accuracy    <       0.00422050 Ry

     total magnetization       =     1.00 Bohr mag/cell
     absolute magnetization    =     1.55 Bohr mag/cell

     iteration # 25     ecut=   140.00 Ry     beta=0.70
     CG style diagonalization
     ethr =  1.06E-06,  avg # of iterations =  3.6

     negative rho (up, down):  2.630E-06 2.435E-05
 
     Magnetic moment per site:
     atom:    1    charge:    0.8442    magn:   -0.0036    constr:    0.0000
     atom:    2    charge:    0.8442    magn:   -0.0034    constr:    0.0000
     atom:    3    charge:    0.8454    magn:   -0.0104    constr:    0.0000
     atom:    4    charge:    0.8434    magn:   -0.0101    constr:    0.0000
     atom:    5    charge:    0.8434    magn:   -0.0101    constr:    0.0000
     atom:    6    charge:    0.8455    magn:   -0.0104    constr:    0.0000
     atom:    7    charge:    0.4973    magn:    0.0002    constr:    0.0000
     atom:    8    charge:    0.4976    magn:    0.0002    constr:    0.0000
     atom:    9    charge:    0.4961    magn:    0.0002    constr:    0.0000
     atom:   10    charge:    0.4956    magn:    0.0003    constr:    0.0000
     atom:   11    charge:    0.4958    magn:    0.0003    constr:    0.0000
     atom:   12    charge:    0.4961    magn:    0.0002    constr:    0.0000
     atom:   13    charge:    5.7982    magn:    1.1407    constr:    0.0000

     total cpu time spent up to now is      180.5 secs

     The total energy is the sum of the following terms:

     one-electron contribution =    -702.96116337 Ry
     hartree contribution      =     350.82410961 Ry
     xc contribution           =     -30.75921235 Ry
     ewald contribution        =     268.46058250 Ry

     total energy              =    -114.44712306 Ry
     Harris-Foulkes estimate   =    -114.44716119 Ry
     estimated scf accuracy    <       0.00123504 Ry

     total magnetization       =     1.00 Bohr mag/cell
     absolute magnetization    =     1.54 Bohr mag/cell

     iteration # 26     ecut=   140.00 Ry     beta=0.70
     CG style diagonalization
     ethr =  1.06E-06,  avg # of iterations =  3.0

     negative rho (up, down):  1.742E-06 7.601E-07
 
     Magnetic moment per site:
     atom:    1    charge:    0.8449    magn:   -0.0055    constr:    0.0000
     atom:    2    charge:    0.8447    magn:   -0.0054    constr:    0.0000
     atom:    3    charge:    0.8446    magn:   -0.0078    constr:    0.0000
     atom:    4    charge:    0.8435    magn:   -0.0114    constr:    0.0000
     atom:    5    charge:    0.8436    magn:   -0.0115    constr:    0.0000
     atom:    6    charge:    0.8448    magn:   -0.0077    constr:    0.0000
     atom:    7    charge:    0.4972    magn:    0.0004    constr:    0.0000
     atom:    8    charge:    0.4974    magn:    0.0004    constr:    0.0000
     atom:    9    charge:    0.4962    magn:    0.0002    constr:    0.0000
     atom:   10    charge:    0.4956    magn:    0.0004    constr:    0.0000
     atom:   11    charge:    0.4958    magn:    0.0004    constr:    0.0000
     atom:   12    charge:    0.4962    magn:    0.0002    constr:    0.0000
     atom:   13    charge:    5.7965    magn:    1.1471    constr:    0.0000

     total cpu time spent up to now is      185.2 secs

     The total energy is the sum of the following terms:

     one-electron contribution =    -702.96259279 Ry
     hartree contribution      =     350.78973239 Ry
     xc contribution           =     -30.74379433 Ry
     ewald contribution        =     268.46058250 Ry

     total energy              =    -114.44268794 Ry
     Harris-Foulkes estimate   =    -114.44713556 Ry
     estimated scf accuracy    <       0.00132100 Ry

     total magnetization       =     1.00 Bohr mag/cell
     absolute magnetization    =     1.54 Bohr mag/cell

     iteration # 27     ecut=   140.00 Ry     beta=0.70
     CG style diagonalization
     ethr =  1.06E-06,  avg # of iterations =  4.0

     negative rho (up, down):  6.592E-07 3.227E-07
 
     Magnetic moment per site:
     atom:    1    charge:    0.8447    magn:   -0.0059    constr:    0.0000
     atom:    2    charge:    0.8448    magn:   -0.0057    constr:    0.0000
     atom:    3    charge:    0.8448    magn:   -0.0080    constr:    0.0000
     atom:    4    charge:    0.8435    magn:   -0.0118    constr:    0.0000
     atom:    5    charge:    0.8436    magn:   -0.0120    constr:    0.0000
     atom:    6    charge:    0.8446    magn:   -0.0078    constr:    0.0000
     atom:    7    charge:    0.4971    magn:    0.0005    constr:    0.0000
     atom:    8    charge:    0.4973    magn:    0.0005    constr:    0.0000
     atom:    9    charge:    0.4963    magn:    0.0002    constr:    0.0000
     atom:   10    charge:    0.4955    magn:    0.0005    constr:    0.0000
     atom:   11    charge:    0.4958    magn:    0.0006    constr:    0.0000
     atom:   12    charge:    0.4963    magn:    0.0002    constr:    0.0000
     atom:   13    charge:    5.7974    magn:    1.1531    constr:    0.0000

     total cpu time spent up to now is      190.9 secs

     The total energy is the sum of the following terms:

     one-electron contribution =    -702.92691937 Ry
     hartree contribution      =     350.79678293 Ry
     xc contribution           =     -30.74530659 Ry
     ewald contribution        =     268.46058250 Ry

     total energy              =    -114.44648202 Ry
     Harris-Foulkes estimate   =    -114.44643067 Ry
     estimated scf accuracy    <       0.00081496 Ry

     total magnetization       =     1.00 Bohr mag/cell
     absolute magnetization    =     1.55 Bohr mag/cell

     iteration # 28     ecut=   140.00 Ry     beta=0.70
     CG style diagonalization
     ethr =  1.06E-06,  avg # of iterations =  3.0

     negative rho (up, down):  2.469E-07 1.110E-07
 
     Magnetic moment per site:
     atom:    1    charge:    0.8448    magn:   -0.0063    constr:    0.0000
     atom:    2    charge:    0.8449    magn:   -0.0062    constr:    0.0000
     atom:    3    charge:    0.8446    magn:   -0.0075    constr:    0.0000
     atom:    4    charge:    0.8436    magn:   -0.0121    constr:    0.0000
     atom:    5    charge:    0.8437    magn:   -0.0123    constr:    0.0000
     atom:    6    charge:    0.8444    magn:   -0.0073    constr:    0.0000
     atom:    7    charge:    0.4970    magn:    0.0005    constr:    0.0000
     atom:    8    charge:    0.4973    magn:    0.0005    constr:    0.0000
     atom:    9    charge:    0.4963    magn:    0.0002    constr:    0.0000
     atom:   10    charge:    0.4955    magn:    0.0006    constr:    0.0000
     atom:   11    charge:    0.4958    magn:    0.0006    constr:    0.0000
     atom:   12    charge:    0.4963    magn:    0.0002    constr:    0.0000
     atom:   13    charge:    5.7976    magn:    1.1548    constr:    0.0000

     total cpu time spent up to now is      195.5 secs

     The total energy is the sum of the following terms:

     one-electron contribution =    -702.95096952 Ry
     hartree contribution      =     350.78984091 Ry
     xc contribution           =     -30.74225881 Ry
     ewald contribution        =     268.46058250 Ry

     total energy              =    -114.44601883 Ry
     Harris-Foulkes estimate   =    -114.44649576 Ry
     estimated scf accuracy    <       0.00057465 Ry

     total magnetization       =     1.00 Bohr mag/cell
     absolute magnetization    =     1.57 Bohr mag/cell

     iteration # 29     ecut=   140.00 Ry     beta=0.70
     CG style diagonalization
     ethr =  1.06E-06,  avg # of iterations =  3.1

     negative rho (up, down):  2.242E-08 9.604E-09
 
     Magnetic moment per site:
     atom:    1    charge:    0.8449    magn:   -0.0063    constr:    0.0000
     atom:    2    charge:    0.8449    magn:   -0.0062    constr:    0.0000
     atom:    3    charge:    0.8445    magn:   -0.0076    constr:    0.0000
     atom:    4    charge:    0.8436    magn:   -0.0120    constr:    0.0000
     atom:    5    charge:    0.8436    magn:   -0.0123    constr:    0.0000
     atom:    6    charge:    0.8444    magn:   -0.0074    constr:    0.0000
     atom:    7    charge:    0.4970    magn:    0.0006    constr:    0.0000
     atom:    8    charge:    0.4973    magn:    0.0005    constr:    0.0000
     atom:    9    charge:    0.4963    magn:    0.0002    constr:    0.0000
     atom:   10    charge:    0.4955    magn:    0.0006    constr:    0.0000
     atom:   11    charge:    0.4958    magn:    0.0006    constr:    0.0000
     atom:   12    charge:    0.4963    magn:    0.0002    constr:    0.0000
     atom:   13    charge:    5.7986    magn:    1.1539    constr:    0.0000

     total cpu time spent up to now is      200.3 secs

     The total energy is the sum of the following terms:

     one-electron contribution =    -702.95898893 Ry
     hartree contribution      =     350.79486086 Ry
     xc contribution           =     -30.73935613 Ry
     ewald contribution        =     268.46058250 Ry

     total energy              =    -114.44631201 Ry
     Harris-Foulkes estimate   =    -114.44617016 Ry
     estimated scf accuracy    <       0.00058262 Ry

     total magnetization       =     1.00 Bohr mag/cell
     absolute magnetization    =     1.58 Bohr mag/cell

     iteration # 30     ecut=   140.00 Ry     beta=0.70
     CG style diagonalization
     ethr =  1.06E-06,  avg # of iterations =  3.1
 
     Magnetic moment per site:
     atom:    1    charge:    0.8446    magn:   -0.0057    constr:    0.0000
     atom:    2    charge:    0.8447    magn:   -0.0056    constr:    0.0000
     atom:    3    charge:    0.8447    magn:   -0.0085    constr:    0.0000
     atom:    4    charge:    0.8435    magn:   -0.0117    constr:    0.0000
     atom:    5    charge:    0.8436    magn:   -0.0119    constr:    0.0000
     atom:    6    charge:    0.8446    magn:   -0.0084    constr:    0.0000
     atom:    7    charge:    0.4971    magn:    0.0005    constr:    0.0000
     atom:    8    charge:    0.4974    magn:    0.0005    constr:    0.0000
     atom:    9    charge:    0.4962    magn:    0.0002    constr:    0.0000
     atom:   10    charge:    0.4955    magn:    0.0006    constr:    0.0000
     atom:   11    charge:    0.4958    magn:    0.0006    constr:    0.0000
     atom:   12    charge:    0.4962    magn:    0.0002    constr:    0.0000
     atom:   13    charge:    5.7995    magn:    1.1523    constr:    0.0000

     total cpu time spent up to now is      205.0 secs

     The total energy is the sum of the following terms:

     one-electron contribution =    -702.98184195 Ry
     hartree contribution      =     350.80812258 Ry
     xc contribution           =     -30.73983517 Ry
     ewald contribution        =     268.46058250 Ry

     total energy              =    -114.44622746 Ry
     Harris-Foulkes estimate   =    -114.44641188 Ry
     estimated scf accuracy    <       0.00059050 Ry

     total magnetization       =     1.00 Bohr mag/cell
     absolute magnetization    =     1.60 Bohr mag/cell

     iteration # 31     ecut=   140.00 Ry     beta=0.70
     CG style diagonalization
     ethr =  1.06E-06,  avg # of iterations =  3.3

     negative rho (up, down):  4.140E-08 1.561E-08
 
     Magnetic moment per site:
     atom:    1    charge:    0.8448    magn:   -0.0059    constr:    0.0000
     atom:    2    charge:    0.8448    magn:   -0.0058    constr:    0.0000
     atom:    3    charge:    0.8446    magn:   -0.0079    constr:    0.0000
     atom:    4    charge:    0.8435    magn:   -0.0117    constr:    0.0000
     atom:    5    charge:    0.8436    magn:   -0.0119    constr:    0.0000
     atom:    6    charge:    0.8446    magn:   -0.0077    constr:    0.0000
     atom:    7    charge:    0.4970    magn:    0.0005    constr:    0.0000
     atom:    8    charge:    0.4973    magn:    0.0005    constr:    0.0000
     atom:    9    charge:    0.4962    magn:    0.0002    constr:    0.0000
     atom:   10    charge:    0.4955    magn:    0.0006    constr:    0.0000
     atom:   11    charge:    0.4958    magn:    0.0006    constr:    0.0000
     atom:   12    charge:    0.4962    magn:    0.0002    constr:    0.0000
     atom:   13    charge:    5.7988    magn:    1.1499    constr:    0.0000

     total cpu time spent up to now is      209.9 secs

     The total energy is the sum of the following terms:

     one-electron contribution =    -703.00344427 Ry
     hartree contribution      =     350.79629314 Ry
     xc contribution           =     -30.73962570 Ry
     ewald contribution        =     268.46058250 Ry

     total energy              =    -114.44634653 Ry
     Harris-Foulkes estimate   =    -114.44729890 Ry
     estimated scf accuracy    <       0.00039857 Ry

     total magnetization       =     1.00 Bohr mag/cell
     absolute magnetization    =     1.60 Bohr mag/cell

     iteration # 32     ecut=   140.00 Ry     beta=0.70
     CG style diagonalization
     ethr =  1.06E-06,  avg # of iterations =  3.2

     negative rho (up, down):  1.140E-07 4.947E-08
 
     Magnetic moment per site:
     atom:    1    charge:    0.8449    magn:   -0.0060    constr:    0.0000
     atom:    2    charge:    0.8449    magn:   -0.0058    constr:    0.0000
     atom:    3    charge:    0.8446    magn:   -0.0075    constr:    0.0000
     atom:    4    charge:    0.8435    magn:   -0.0117    constr:    0.0000
     atom:    5    charge:    0.8436    magn:   -0.0119    constr:    0.0000
     atom:    6    charge:    0.8445    magn:   -0.0074    constr:    0.0000
     atom:    7    charge:    0.4970    magn:    0.0005    constr:    0.0000
     atom:    8    charge:    0.4973    magn:    0.0005    constr:    0.0000
     atom:    9    charge:    0.4962    magn:    0.0002    constr:    0.0000
     atom:   10    charge:    0.4955    magn:    0.0005    constr:    0.0000
     atom:   11    charge:    0.4958    magn:    0.0005    constr:    0.0000
     atom:   12    charge:    0.4962    magn:    0.0002    constr:    0.0000
     atom:   13    charge:    5.7986    magn:    1.1483    constr:    0.0000

     total cpu time spent up to now is      214.7 secs

     The total energy is the sum of the following terms:

     one-electron contribution =    -702.98747594 Ry
     hartree contribution      =     350.79033007 Ry
     xc contribution           =     -30.74088349 Ry
     ewald contribution        =     268.46058250 Ry

     total energy              =    -114.44628078 Ry
     Harris-Foulkes estimate   =    -114.44677383 Ry
     estimated scf accuracy    <       0.00054167 Ry

     total magnetization       =     1.00 Bohr mag/cell
     absolute magnetization    =     1.59 Bohr mag/cell

     iteration # 33     ecut=   140.00 Ry     beta=0.70
     CG style diagonalization
     ethr =  1.06E-06,  avg # of iterations =  3.1

     negative rho (up, down):  4.635E-08 1.884E-08
 
     Magnetic moment per site:
     atom:    1    charge:    0.8447    magn:   -0.0056    constr:    0.0000
     atom:    2    charge:    0.8448    magn:   -0.0054    constr:    0.0000
     atom:    3    charge:    0.8447    magn:   -0.0083    constr:    0.0000
     atom:    4    charge:    0.8435    magn:   -0.0114    constr:    0.0000
     atom:    5    charge:    0.8435    magn:   -0.0116    constr:    0.0000
     atom:    6    charge:    0.8447    magn:   -0.0082    constr:    0.0000
     atom:    7    charge:    0.4971    magn:    0.0005    constr:    0.0000
     atom:    8    charge:    0.4974    magn:    0.0005    constr:    0.0000
     atom:    9    charge:    0.4962    magn:    0.0002    constr:    0.0000
     atom:   10    charge:    0.4955    magn:    0.0005    constr:    0.0000
     atom:   11    charge:    0.4958    magn:    0.0005    constr:    0.0000
     atom:   12    charge:    0.4962    magn:    0.0002    constr:    0.0000
     atom:   13    charge:    5.7992    magn:    1.1484    constr:    0.0000

     total cpu time spent up to now is      219.5 secs

     The total energy is the sum of the following terms:

     one-electron contribution =    -702.98944740 Ry
     hartree contribution      =     350.80224022 Ry
     xc contribution           =     -30.74024553 Ry
     ewald contribution        =     268.46058250 Ry

     total energy              =    -114.44651336 Ry
     Harris-Foulkes estimate   =    -114.44643983 Ry
     estimated scf accuracy    <       0.00058911 Ry

     total magnetization       =     1.00 Bohr mag/cell
     absolute magnetization    =     1.59 Bohr mag/cell

     iteration # 34     ecut=   140.00 Ry     beta=0.70
     CG style diagonalization
     ethr =  1.06E-06,  avg # of iterations =  3.2

     negative rho (up, down):  0.000E+00 3.816E-07
 
     Magnetic moment per site:
     atom:    1    charge:    0.8444    magn:   -0.0042    constr:    0.0000
     atom:    2    charge:    0.8443    magn:   -0.0040    constr:    0.0000
     atom:    3    charge:    0.8451    magn:   -0.0105    constr:    0.0000
     atom:    4    charge:    0.8434    magn:   -0.0106    constr:    0.0000
     atom:    5    charge:    0.8434    magn:   -0.0105    constr:    0.0000
     atom:    6    charge:    0.8453    magn:   -0.0105    constr:    0.0000
     atom:    7    charge:    0.4973    magn:    0.0003    constr:    0.0000
     atom:    8    charge:    0.4976    magn:    0.0003    constr:    0.0000
     atom:    9    charge:    0.4961    magn:    0.0004    constr:    0.0000
     atom:   10    charge:    0.4955    magn:    0.0005    constr:    0.0000
     atom:   11    charge:    0.4958    magn:    0.0005    constr:    0.0000
     atom:   12    charge:    0.4960    magn:    0.0004    constr:    0.0000
     atom:   13    charge:    5.8009    magn:    1.1460    constr:    0.0000

     total cpu time spent up to now is      224.3 secs

     The total energy is the sum of the following terms:

     one-electron contribution =    -702.99447906 Ry
     hartree contribution      =     350.83921652 Ry
     xc contribution           =     -30.74938365 Ry
     ewald contribution        =     268.46058250 Ry

     total energy              =    -114.44422123 Ry
     Harris-Foulkes estimate   =    -114.44709304 Ry
     estimated scf accuracy    <       0.00044614 Ry

     total magnetization       =     1.00 Bohr mag/cell
     absolute magnetization    =     1.59 Bohr mag/cell

     iteration # 35     ecut=   140.00 Ry     beta=0.70
     CG style diagonalization
     ethr =  1.06E-06,  avg # of iterations =  3.9
 
     Magnetic moment per site:
     atom:    1    charge:    0.8445    magn:   -0.0048    constr:    0.0000
     atom:    2    charge:    0.8445    magn:   -0.0047    constr:    0.0000
     atom:    3    charge:    0.8449    magn:   -0.0097    constr:    0.0000
     atom:    4    charge:    0.8434    magn:   -0.0109    constr:    0.0000
     atom:    5    charge:    0.8434    magn:   -0.0109    constr:    0.0000
     atom:    6    charge:    0.8450    magn:   -0.0096    constr:    0.0000
     atom:    7    charge:    0.4973    magn:    0.0004    constr:    0.0000
     atom:    8    charge:    0.4976    magn:    0.0003    constr:    0.0000
     atom:    9    charge:    0.4961    magn:    0.0004    constr:    0.0000
     atom:   10    charge:    0.4955    magn:    0.0005    constr:    0.0000
     atom:   11    charge:    0.4958    magn:    0.0005    constr:    0.0000
     atom:   12    charge:    0.4961    magn:    0.0004    constr:    0.0000
     atom:   13    charge:    5.8014    magn:    1.1460    constr:    0.0000

     total cpu time spent up to now is      229.9 secs

     The total energy is the sum of the following terms:

     one-electron contribution =    -703.00386144 Ry
     hartree contribution      =     350.82968324 Ry
     xc contribution           =     -30.73765511 Ry
     ewald contribution        =     268.46058250 Ry

     total energy              =    -114.44783451 Ry
     Harris-Foulkes estimate   =    -114.44815567 Ry
     estimated scf accuracy    <       0.00025631 Ry

     total magnetization       =     1.00 Bohr mag/cell
     absolute magnetization    =     1.57 Bohr mag/cell

     iteration # 36     ecut=   140.00 Ry     beta=0.70
     CG style diagonalization
     ethr =  6.93E-07,  avg # of iterations =  3.4
 
     Magnetic moment per site:
     atom:    1    charge:    0.8446    magn:   -0.0051    constr:    0.0000
     atom:    2    charge:    0.8446    magn:   -0.0050    constr:    0.0000
     atom:    3    charge:    0.8448    magn:   -0.0093    constr:    0.0000
     atom:    4    charge:    0.8434    magn:   -0.0111    constr:    0.0000
     atom:    5    charge:    0.8435    magn:   -0.0112    constr:    0.0000
     atom:    6    charge:    0.8448    magn:   -0.0092    constr:    0.0000
     atom:    7    charge:    0.4972    magn:    0.0004    constr:    0.0000
     atom:    8    charge:    0.4975    magn:    0.0004    constr:    0.0000
     atom:    9    charge:    0.4961    magn:    0.0004    constr:    0.0000
     atom:   10    charge:    0.4955    magn:    0.0005    constr:    0.0000
     atom:   11    charge:    0.4958    magn:    0.0005    constr:    0.0000
     atom:   12    charge:    0.4961    magn:    0.0004    constr:    0.0000
     atom:   13    charge:    5.8005    magn:    1.1482    constr:    0.0000

     total cpu time spent up to now is      234.9 secs

     The total energy is the sum of the following terms:

     one-electron contribution =    -703.01726650 Ry
     hartree contribution      =     350.82005695 Ry
     xc contribution           =     -30.73723982 Ry
     ewald contribution        =     268.46058250 Ry

     total energy              =    -114.44756118 Ry
     Harris-Foulkes estimate   =    -114.44807817 Ry
     estimated scf accuracy    <       0.00038188 Ry

     total magnetization       =     1.00 Bohr mag/cell
     absolute magnetization    =     1.59 Bohr mag/cell

     iteration # 37     ecut=   140.00 Ry     beta=0.70
     CG style diagonalization
     ethr =  6.93E-07,  avg # of iterations =  3.2
 
     Magnetic moment per site:
     atom:    1    charge:    0.8444    magn:   -0.0048    constr:    0.0000
     atom:    2    charge:    0.8444    magn:   -0.0047    constr:    0.0000
     atom:    3    charge:    0.8449    magn:   -0.0100    constr:    0.0000
     atom:    4    charge:    0.8433    magn:   -0.0110    constr:    0.0000
     atom:    5    charge:    0.8435    magn:   -0.0110    constr:    0.0000
     atom:    6    charge:    0.8450    magn:   -0.0099    constr:    0.0000
     atom:    7    charge:    0.4973    magn:    0.0004    constr:    0.0000
     atom:    8    charge:    0.4976    magn:    0.0003    constr:    0.0000
     atom:    9    charge:    0.4961    magn:    0.0004    constr:    0.0000
     atom:   10    charge:    0.4955    magn:    0.0005    constr:    0.0000
     atom:   11    charge:    0.4958    magn:    0.0005    constr:    0.0000
     atom:   12    charge:    0.4961    magn:    0.0004    constr:    0.0000
     atom:   13    charge:    5.8011    magn:    1.1497    constr:    0.0000

     total cpu time spent up to now is      239.6 secs

     The total energy is the sum of the following terms:

     one-electron contribution =    -703.00534953 Ry
     hartree contribution      =     350.83397288 Ry
     xc contribution           =     -30.74128167 Ry
     ewald contribution        =     268.46058250 Ry

     total energy              =    -114.44774761 Ry
     Harris-Foulkes estimate   =    -114.44780460 Ry
     estimated scf accuracy    <       0.00047060 Ry

     total magnetization       =     1.00 Bohr mag/cell
     absolute magnetization    =     1.59 Bohr mag/cell

     iteration # 38     ecut=   140.00 Ry     beta=0.70
     CG style diagonalization
     ethr =  6.93E-07,  avg # of iterations =  3.2
 
     Magnetic moment per site:
     atom:    1    charge:    0.8442    magn:   -0.0047    constr:    0.0000
     atom:    2    charge:    0.8443    magn:   -0.0046    constr:    0.0000
     atom:    3    charge:    0.8451    magn:   -0.0107    constr:    0.0000
     atom:    4    charge:    0.8432    magn:   -0.0109    constr:    0.0000
     atom:    5    charge:    0.8434    magn:   -0.0109    constr:    0.0000
     atom:    6    charge:    0.8450    magn:   -0.0107    constr:    0.0000
     atom:    7    charge:    0.4973    magn:    0.0003    constr:    0.0000
     atom:    8    charge:    0.4976    magn:    0.0003    constr:    0.0000
     atom:    9    charge:    0.4962    magn:    0.0004    constr:    0.0000
     atom:   10    charge:    0.4956    magn:    0.0005    constr:    0.0000
     atom:   11    charge:    0.4958    magn:    0.0005    constr:    0.0000
     atom:   12    charge:    0.4962    magn:    0.0004    constr:    0.0000
     atom:   13    charge:    5.8027    magn:    1.1537    constr:    0.0000

     total cpu time spent up to now is      244.5 secs

     The total energy is the sum of the following terms:

     one-electron contribution =    -703.01177736 Ry
     hartree contribution      =     350.85960423 Ry
     xc contribution           =     -30.74323873 Ry
     ewald contribution        =     268.46058250 Ry

     total energy              =    -114.44749399 Ry
     Harris-Foulkes estimate   =    -114.44825137 Ry
     estimated scf accuracy    <       0.00016716 Ry

     total magnetization       =     1.00 Bohr mag/cell
     absolute magnetization    =     1.59 Bohr mag/cell

     iteration # 39     ecut=   140.00 Ry     beta=0.70
     CG style diagonalization
     ethr =  4.52E-07,  avg # of iterations =  3.8

     negative rho (up, down):  0.000E+00 1.659E-05
 
     Magnetic moment per site:
     atom:    1    charge:    0.8439    magn:   -0.0038    constr:    0.0000
[...]
     Harris-Foulkes estimate   =    -114.44865657 Ry
     estimated scf accuracy    <       0.00000004 Ry

     total magnetization       =     1.00 Bohr mag/cell
     absolute magnetization    =     1.58 Bohr mag/cell

     iteration # 48     ecut=   140.00 Ry     beta=0.70
     CG style diagonalization
     ethr =  1.02E-10,  avg # of iterations =  4.3
 
     Magnetic moment per site:
     atom:    1    charge:    0.8442    magn:   -0.0041    constr:    0.0000
     atom:    2    charge:    0.8442    magn:   -0.0041    constr:    0.0000
     atom:    3    charge:    0.8450    magn:   -0.0105    constr:    0.0000
     atom:    4    charge:    0.8433    magn:   -0.0099    constr:    0.0000
     atom:    5    charge:    0.8434    magn:   -0.0099    constr:    0.0000
     atom:    6    charge:    0.8450    magn:   -0.0105    constr:    0.0000
     atom:    7    charge:    0.4975    magn:    0.0002    constr:    0.0000
     atom:    8    charge:    0.4978    magn:    0.0002    constr:    0.0000
     atom:    9    charge:    0.4962    magn:    0.0004    constr:    0.0000
     atom:   10    charge:    0.4956    magn:    0.0004    constr:    0.0000
     atom:   11    charge:    0.4959    magn:    0.0004    constr:    0.0000
     atom:   12    charge:    0.4962    magn:    0.0004    constr:    0.0000
     atom:   13    charge:    5.8050    magn:    1.1372    constr:    0.0000

     total cpu time spent up to now is      300.7 secs

     The total energy is the sum of the following terms:

     one-electron contribution =    -703.03530578 Ry
     hartree contribution      =     350.87039463 Ry
     xc contribution           =     -30.74434355 Ry
     ewald contribution        =     268.46058250 Ry

     total energy              =    -114.44865663 Ry
     Harris-Foulkes estimate   =    -114.44865663 Ry
     estimated scf accuracy    <          6.2E-09 Ry

     total magnetization       =     1.00 Bohr mag/cell
     absolute magnetization    =     1.58 Bohr mag/cell

     iteration # 49     ecut=   140.00 Ry     beta=0.70
     CG style diagonalization
     ethr =  1.67E-11,  avg # of iterations =  3.9
 
     Magnetic moment per site:
     atom:    1    charge:    0.8442    magn:   -0.0041    constr:    0.0000
     atom:    2    charge:    0.8442    magn:   -0.0041    constr:    0.0000
     atom:    3    charge:    0.8450    magn:   -0.0105    constr:    0.0000
     atom:    4    charge:    0.8433    magn:   -0.0099    constr:    0.0000
     atom:    5    charge:    0.8434    magn:   -0.0099    constr:    0.0000
     atom:    6    charge:    0.8450    magn:   -0.0105    constr:    0.0000
     atom:    7    charge:    0.4975    magn:    0.0002    constr:    0.0000
     atom:    8    charge:    0.4978    magn:    0.0002    constr:    0.0000
     atom:    9    charge:    0.4962    magn:    0.0004    constr:    0.0000
     atom:   10    charge:    0.4956    magn:    0.0004    constr:    0.0000
     atom:   11    charge:    0.4959    magn:    0.0004    constr:    0.0000
     atom:   12    charge:    0.4962    magn:    0.0004    constr:    0.0000
     atom:   13    charge:    5.8050    magn:    1.1372    constr:    0.0000

     total cpu time spent up to now is      306.2 secs

     The total energy is the sum of the following terms:

     one-electron contribution =    -703.03532765 Ry
     hartree contribution      =     350.87033897 Ry
     xc contribution           =     -30.74430740 Ry
     ewald contribution        =     268.46058250 Ry

     total energy              =    -114.44865664 Ry
     Harris-Foulkes estimate   =    -114.44865664 Ry
     estimated scf accuracy    <          2.7E-09 Ry

     total magnetization       =     1.00 Bohr mag/cell
     absolute magnetization    =     1.58 Bohr mag/cell

     iteration # 50     ecut=   140.00 Ry     beta=0.70
     CG style diagonalization
     ethr =  7.36E-12,  avg # of iterations =  4.0
 
     Magnetic moment per site:
     atom:    1    charge:    0.8442    magn:   -0.0041    constr:    0.0000
     atom:    2    charge:    0.8442    magn:   -0.0041    constr:    0.0000
     atom:    3    charge:    0.8450    magn:   -0.0105    constr:    0.0000
     atom:    4    charge:    0.8433    magn:   -0.0099    constr:    0.0000
     atom:    5    charge:    0.8434    magn:   -0.0099    constr:    0.0000
     atom:    6    charge:    0.8450    magn:   -0.0105    constr:    0.0000
     atom:    7    charge:    0.4975    magn:    0.0002    constr:    0.0000
     atom:    8    charge:    0.4978    magn:    0.0002    constr:    0.0000
     atom:    9    charge:    0.4962    magn:    0.0004    constr:    0.0000
     atom:   10    charge:    0.4956    magn:    0.0004    constr:    0.0000
     atom:   11    charge:    0.4959    magn:    0.0004    constr:    0.0000
     atom:   12    charge:    0.4962    magn:    0.0004    constr:    0.0000
     atom:   13    charge:    5.8050    magn:    1.1372    constr:    0.0000

     total cpu time spent up to now is      311.9 secs

     The total energy is the sum of the following terms:

     one-electron contribution =    -703.03529498 Ry
     hartree contribution      =     350.87045355 Ry
     xc contribution           =     -30.74433623 Ry
     ewald contribution        =     268.46058250 Ry

     total energy              =    -114.44865663 Ry
     Harris-Foulkes estimate   =    -114.44865664 Ry
     estimated scf accuracy    <          4.8E-09 Ry

     total magnetization       =     1.00 Bohr mag/cell
     absolute magnetization    =     1.58 Bohr mag/cell

     iteration # 51     ecut=   140.00 Ry     beta=0.70
     CG style diagonalization
     ethr =  7.36E-12,  avg # of iterations =  3.8
 
     Magnetic moment per site:
     atom:    1    charge:    0.8442    magn:   -0.0041    constr:    0.0000
     atom:    2    charge:    0.8442    magn:   -0.0041    constr:    0.0000
     atom:    3    charge:    0.8450    magn:   -0.0105    constr:    0.0000
     atom:    4    charge:    0.8433    magn:   -0.0099    constr:    0.0000
     atom:    5    charge:    0.8434    magn:   -0.0099    constr:    0.0000
     atom:    6    charge:    0.8450    magn:   -0.0105    constr:    0.0000
     atom:    7    charge:    0.4975    magn:    0.0002    constr:    0.0000
     atom:    8    charge:    0.4978    magn:    0.0002    constr:    0.0000
     atom:    9    charge:    0.4962    magn:    0.0004    constr:    0.0000
     atom:   10    charge:    0.4956    magn:    0.0004    constr:    0.0000
     atom:   11    charge:    0.4959    magn:    0.0004    constr:    0.0000
     atom:   12    charge:    0.4962    magn:    0.0004    constr:    0.0000
     atom:   13    charge:    5.8050    magn:    1.1372    constr:    0.0000

     total cpu time spent up to now is      317.3 secs

     The total energy is the sum of the following terms:

     one-electron contribution =    -703.03536333 Ry
     hartree contribution      =     350.87037342 Ry
     xc contribution           =     -30.74432379 Ry
     ewald contribution        =     268.46058250 Ry

     total energy              =    -114.44865664 Ry
     Harris-Foulkes estimate   =    -114.44865665 Ry
     estimated scf accuracy    <          1.3E-09 Ry

     total magnetization       =     1.00 Bohr mag/cell
     absolute magnetization    =     1.58 Bohr mag/cell

     iteration # 52     ecut=   140.00 Ry     beta=0.70
     CG style diagonalization
     ethr =  3.52E-12,  avg # of iterations =  4.1
 
     Magnetic moment per site:
     atom:    1    charge:    0.8442    magn:   -0.0041    constr:    0.0000
     atom:    2    charge:    0.8442    magn:   -0.0041    constr:    0.0000
     atom:    3    charge:    0.8450    magn:   -0.0105    constr:    0.0000
     atom:    4    charge:    0.8433    magn:   -0.0099    constr:    0.0000
     atom:    5    charge:    0.8434    magn:   -0.0099    constr:    0.0000
     atom:    6    charge:    0.8450    magn:   -0.0105    constr:    0.0000
     atom:    7    charge:    0.4975    magn:    0.0002    constr:    0.0000
     atom:    8    charge:    0.4978    magn:    0.0002    constr:    0.0000
     atom:    9    charge:    0.4962    magn:    0.0004    constr:    0.0000
     atom:   10    charge:    0.4956    magn:    0.0004    constr:    0.0000
     atom:   11    charge:    0.4959    magn:    0.0004    constr:    0.0000
     atom:   12    charge:    0.4962    magn:    0.0004    constr:    0.0000
     atom:   13    charge:    5.8050    magn:    1.1373    constr:    0.0000

     total cpu time spent up to now is      323.0 secs

     The total energy is the sum of the following terms:

     one-electron contribution =    -703.03538080 Ry
     hartree contribution      =     350.87045214 Ry
     xc contribution           =     -30.74433321 Ry
     ewald contribution        =     268.46058250 Ry

     total energy              =    -114.44865664 Ry
     Harris-Foulkes estimate   =    -114.44865665 Ry
     estimated scf accuracy    <          1.3E-09 Ry

     total magnetization       =     1.00 Bohr mag/cell
     absolute magnetization    =     1.58 Bohr mag/cell

     iteration # 53     ecut=   140.00 Ry     beta=0.70
     CG style diagonalization
     ethr =  3.47E-12,  avg # of iterations =  4.4
 
     Magnetic moment per site:
     atom:    1    charge:    0.8442    magn:   -0.0041    constr:    0.0000
     atom:    2    charge:    0.8442    magn:   -0.0041    constr:    0.0000
     atom:    3    charge:    0.8450    magn:   -0.0105    constr:    0.0000
     atom:    4    charge:    0.8433    magn:   -0.0099    constr:    0.0000
     atom:    5    charge:    0.8434    magn:   -0.0099    constr:    0.0000
     atom:    6    charge:    0.8450    magn:   -0.0105    constr:    0.0000
     atom:    7    charge:    0.4975    magn:    0.0002    constr:    0.0000
     atom:    8    charge:    0.4978    magn:    0.0002    constr:    0.0000
     atom:    9    charge:    0.4962    magn:    0.0004    constr:    0.0000
     atom:   10    charge:    0.4956    magn:    0.0004    constr:    0.0000
     atom:   11    charge:    0.4959    magn:    0.0004    constr:    0.0000
     atom:   12    charge:    0.4962    magn:    0.0004    constr:    0.0000
     atom:   13    charge:    5.8050    magn:    1.1372    constr:    0.0000

     total cpu time spent up to now is      329.1 secs

     The total energy is the sum of the following terms:

     one-electron contribution =    -703.03524038 Ry
     hartree contribution      =     350.87045484 Ry
     xc contribution           =     -30.74433460 Ry
     ewald contribution        =     268.46058250 Ry

     total energy              =    -114.44865666 Ry
     Harris-Foulkes estimate   =    -114.44865666 Ry
     estimated scf accuracy    <          1.5E-09 Ry

     total magnetization       =     1.00 Bohr mag/cell
     absolute magnetization    =     1.58 Bohr mag/cell

     iteration # 54     ecut=   140.00 Ry     beta=0.70
     CG style diagonalization
     ethr =  3.47E-12,  avg # of iterations =  3.5
 
     Magnetic moment per site:
     atom:    1    charge:    0.8442    magn:   -0.0041    constr:    0.0000
     atom:    2    charge:    0.8442    magn:   -0.0041    constr:    0.0000
     atom:    3    charge:    0.8450    magn:   -0.0105    constr:    0.0000
     atom:    4    charge:    0.8433    magn:   -0.0099    constr:    0.0000
     atom:    5    charge:    0.8434    magn:   -0.0099    constr:    0.0000
     atom:    6    charge:    0.8450    magn:   -0.0105    constr:    0.0000
     atom:    7    charge:    0.4975    magn:    0.0002    constr:    0.0000
     atom:    8    charge:    0.4978    magn:    0.0002    constr:    0.0000
     atom:    9    charge:    0.4962    magn:    0.0004    constr:    0.0000
     atom:   10    charge:    0.4956    magn:    0.0004    constr:    0.0000
     atom:   11    charge:    0.4959    magn:    0.0004    constr:    0.0000
     atom:   12    charge:    0.4962    magn:    0.0004    constr:    0.0000
     atom:   13    charge:    5.8050    magn:    1.1372    constr:    0.0000

     total cpu time spent up to now is      334.1 secs

     The total energy is the sum of the following terms:

     one-electron contribution =    -703.03527330 Ry
     hartree contribution      =     350.87040239 Ry
     xc contribution           =     -30.74433113 Ry
     ewald contribution        =     268.46058250 Ry

     total energy              =    -114.44865665 Ry
     Harris-Foulkes estimate   =    -114.44865666 Ry
     estimated scf accuracy    <          4.0E-10 Ry

     total magnetization       =     1.00 Bohr mag/cell
     absolute magnetization    =     1.58 Bohr mag/cell

     iteration # 55     ecut=   140.00 Ry     beta=0.70
     CG style diagonalization
     ethr =  1.08E-12,  avg # of iterations =  4.4
 
     Magnetic moment per site:
     atom:    1    charge:    0.8442    magn:   -0.0041    constr:    0.0000
     atom:    2    charge:    0.8442    magn:   -0.0041    constr:    0.0000
     atom:    3    charge:    0.8450    magn:   -0.0105    constr:    0.0000
     atom:    4    charge:    0.8433    magn:   -0.0099    constr:    0.0000
     atom:    5    charge:    0.8434    magn:   -0.0099    constr:    0.0000
     atom:    6    charge:    0.8450    magn:   -0.0105    constr:    0.0000
     atom:    7    charge:    0.4975    magn:    0.0002    constr:    0.0000
     atom:    8    charge:    0.4978    magn:    0.0002    constr:    0.0000
     atom:    9    charge:    0.4962    magn:    0.0004    constr:    0.0000
     atom:   10    charge:    0.4956    magn:    0.0004    constr:    0.0000
     atom:   11    charge:    0.4959    magn:    0.0004    constr:    0.0000
     atom:   12    charge:    0.4962    magn:    0.0004    constr:    0.0000
     atom:   13    charge:    5.8050    magn:    1.1372    constr:    0.0000

     total cpu time spent up to now is      340.2 secs

     End of self-consistent calculation

 ------ SPIN UP ------------


          k = 0.0000 0.0000 0.0000 (463985 PWs)   bands (ev):

   -25.3110 -22.5723 -22.5251 -19.5552 -18.9967 -18.9898 -17.1622 -15.4933
   -15.0422 -14.5075 -14.4715 -13.2167 -12.4918 -12.4908 -10.5398 -10.4829
    -8.0407  -6.7231  -6.7062  -5.3987  -5.3599  -4.6374  -3.9570  -3.9518
    -3.3020  -3.2927  -3.0405  -2.3280  -2.2331  -2.0636  -2.0479  -1.7740
    -1.7169  -0.7586  -0.7176  -0.6424  -0.6315  -0.3559  -0.3091  -0.1767

     occupation numbers 
     1.0000   1.0000   1.0000   1.0000   1.0000   1.0000   1.0000   1.0000
     1.0000   1.0000   1.0000   1.0000   1.0000   1.0000   1.0000   1.0000
     1.0000   1.0000   1.0000   0.0000   0.0000   0.0000   0.0000   0.0000
     0.0000   0.0000   0.0000   0.0000   0.0000   0.0000   0.0000   0.0000
     0.0000   0.0000   0.0000   0.0000   0.0000   0.0000   0.0000   0.0000

 ------ SPIN DOWN ----------


          k = 0.0000 0.0000 0.0000 (463985 PWs)   bands (ev):

   -25.3528 -22.6163 -22.5812 -19.0387 -19.0376 -17.9917 -17.1778 -15.5297
   -15.0615 -14.5180 -14.4856 -13.3241 -12.5075 -12.5048 -10.6542 -10.6320
    -6.1144  -6.0911  -5.4673  -5.4651  -5.3153  -4.6549  -3.9802  -3.9657
    -3.3279  -3.3170  -3.0711  -2.3306  -2.2600  -2.1037  -2.0844  -1.8628
    -1.8045  -0.7922  -0.7552  -0.6631  -0.6538  -0.4032  -0.3215  -0.1946

     occupation numbers 
     1.0000   1.0000   1.0000   1.0000   1.0000   1.0000   1.0000   1.0000
     1.0000   1.0000   1.0000   1.0000   1.0000   1.0000   1.0000   1.0000
     1.0000   1.0000   0.0000   0.0000   0.0000   0.0000   0.0000   0.0000
     0.0000   0.0000   0.0000   0.0000   0.0000   0.0000   0.0000   0.0000
     0.0000   0.0000   0.0000   0.0000   0.0000   0.0000   0.0000   0.0000

     highest occupied, lowest unoccupied level (ev):    -6.0911   -5.4673

     The total energy is the sum of the following terms:

     one-electron contribution =    -703.03536113 Ry
     hartree contribution      =     350.87045661 Ry
     xc contribution           =     -30.74433464 Ry
     ewald contribution        =     268.46058250 Ry

!    total energy              =    -114.44865666 Ry
     Harris-Foulkes estimate   =    -114.44865666 Ry
     estimated scf accuracy    <          9.5E-11 Ry

     The total energy is the sum of the following terms:

     one-electron contribution =    -703.03536113 Ry
     hartree contribution      =     350.87045661 Ry
     xc contribution           =     -30.74433464 Ry
     ewald contribution        =     268.46058250 Ry

     total magnetization       =     1.00 Bohr mag/cell
     absolute magnetization    =     1.58 Bohr mag/cell

     convergence has been achieved in  55 iterations
 
     Using Hirshfeld
        Amplitude [Ry a.u.] : -3.8911E-01
        Acceptor Fragment start :          13
        Acceptor Fragment end   :          13
        Donor Fragment start :           1
        Donor Fragment end   :          12
 
 
     Using Hirshfeld
        Amplitude [Ry a.u.] : -3.8911E-01
        Acceptor Fragment start :          13
        Acceptor Fragment end   :          13
        Donor Fragment start :           1
        Donor Fragment end   :          12
 
     E field correction              :  0.9338541678801048E+01 Ry    
 
     Donor charge                    :     -0.3486897153652500 e     
     Acceptor charge                 :      0.6513178807351334 e     
     Difference of charges           :     -1.0000075961003851 e     

     Writing output data file right.save
 
     init_run     :     30.00s CPU     30.00s WALL (       1 calls)
     electrons    :    313.89s CPU    313.89s WALL (       1 calls)

     Called by init_run:
     wfcinit      :      6.18s CPU      6.18s WALL (       1 calls)
     potinit      :      1.71s CPU      1.71s WALL (       1 calls)

     Called by electrons:
     c_bands      :    208.00s CPU    208.00s WALL (      55 calls)
     sum_band     :     17.57s CPU     17.57s WALL (      55 calls)
     v_of_rho     :     50.46s CPU     50.46s WALL (      56 calls)
     v_h          :      0.62s CPU      0.62s WALL (      56 calls)
     v_xc         :     49.84s CPU     49.84s WALL (      56 calls)
     mix_rho      :      2.25s CPU      2.25s WALL (      55 calls)

     Called by c_bands:
     init_us_2    :      0.84s CPU      0.84s WALL (     222 calls)
     rcgdiagg     :    165.30s CPU    165.30s WALL (     110 calls)
     wfcrot       :     42.73s CPU     42.73s WALL (     110 calls)

     Called by sum_band:

     Called by *cgdiagg:
     h_psi        :    177.28s CPU    177.28s WALL (   12634 calls)
     rdiaghg      :      7.92s CPU      7.92s WALL (     110 calls)
     rdiaghg:chol :      0.61s CPU      0.61s WALL (     110 calls)
     rdiaghg:inve :      0.11s CPU      0.11s WALL (     110 calls)
     rdiaghg:para :      0.60s CPU      0.60s WALL (     220 calls)

     Called by h_psi:
     h_psi:vloc   :    154.07s CPU    154.07s WALL (   12634 calls)
     h_psi:vnl    :     22.95s CPU     22.95s WALL (   12634 calls)
     add_vuspsi   :     15.82s CPU     15.83s WALL (   12634 calls)

     General routines
     calbec       :     10.07s CPU     10.10s WALL (   25158 calls)
     fft          :     15.59s CPU     15.59s WALL (    1798 calls)
     fftw         :    147.80s CPU    147.81s WALL (   31984 calls)
 
     Parallel routines
     fft_scatter  :     66.76s CPU     66.77s WALL (   33782 calls)
 
     PWSCF        :  6m35.28s CPU     6m35.28s WALL

 
   This run was terminated on:  20:25:40  22Aug2015            

=------------------------------------------------------------------------------=
   JOB DONE.
=------------------------------------------------------------------------------=
2015-08-22 20:25:57.794 (INFO ) [0xfff7ed3c410] CET-20400-31731-128:1295561:ibm.runjob.client.Job: exited with status 0
2015-08-22 20:25:57.795 (INFO ) [0xfff7ed3c410] tatu.runjob.client: task exited with status 0
2015-08-22 20:25:57.795 (INFO ) [0xfffa08434e0] 16669:tatu.runjob.monitor: monitor terminating
2015-08-22 20:25:57.800 (INFO ) [0xfff7ed3c410] tatu.runjob.client: monitor completed
