2015-08-24 14:59:26.912 (INFO ) [0xfff85c9c410] ibm.runjob.AbstractOptions: using properties file /bgsys/local/etc/bg.properties
2015-08-24 14:59:26.921 (INFO ) [0xfff85c9c410] ibm.runjob.AbstractOptions: max open file descriptors: 65536
2015-08-24 14:59:26.921 (INFO ) [0xfff85c9c410] ibm.runjob.AbstractOptions: core file limit: 18446744073709551615
2015-08-24 14:59:26.924 (INFO ) [0xfff85c9c410] 14848:tatu.runjob.client: scheduler job id is 568292
2015-08-24 14:59:26.962 (INFO ) [0xfffaae234e0] 14848:tatu.runjob.monitor: monitor started
2015-08-24 14:59:32.001 (INFO ) [0xfffaae234e0] 14848:tatu.runjob.monitor: task record 1239006 created
2015-08-24 14:59:32.002 (INFO ) [0xfff85c9c410] CET-20400-31731-128:14848:ibm.runjob.client.options.Parser: set local socket to runjob_mux from properties file
2015-08-24 14:59:34.839 (INFO ) [0xfff85c9c410] CET-20400-31731-128:1297538:ibm.runjob.client.Job: job 1297538 started

     Program PWSCF v.5.1.1 starts on 24Aug2015 at 14:59:34 

     This program is part of the open-source Quantum ESPRESSO suite
     for quantum simulation of materials; please cite
         "P. Giannozzi et al., J. Phys.:Condens. Matter 21 395502 (2009);
          URL http://www.quantum-espresso.org", 
     in publications or presentations arising from this work. More details at
     http://www.quantum-espresso.org/quote

     Parallel version (MPI & OpenMP), running on    1024 processor cores
     Number of MPI processes:              1024
     Threads/MPI process:                     1
     R & G space division:  proc/nbgrp/npool/nimage =    1024
     Waiting for input...
     Reading input from standard input

     Current dimensions of program PWSCF are:
     Max number of different atomic species (ntypx) = 10
     Max number of k-points (npk) =  40000
     Max angular momentum in pseudopotentials (lmaxx) =  3
               file C.pbe-mt_fhi.UPF: wavefunction(s)  4f renormalized
               file H.pbe-mt_fhi.UPF: wavefunction(s)  2p 4f renormalized
               file Cl.pbe-mt_fhi.UPF: wavefunction(s)  4f renormalized

     gamma-point specific algorithms are used
     Message from routine setup:
     the system is metallic, specify occupations

     Subspace diagonalization in iterative solution of the eigenvalue problem:
     scalapack distributed-memory algorithm (size of sub-group: 22* 22 procs)

 
     Parallelization info
     --------------------
     sticks:   dense  smooth     PW     G-vecs:    dense   smooth      PW
     Min          64      64     16                12444    12444    1528
     Max          66      66     18                12482    12482    1576
     Sum       65993   65993  16525             12760697 12760697 1595549
     Tot       32997   32997   8263
 
     Generating pointlists ...
     new r_m :   0.0203 (alat units)  0.8450 (a.u.) for type    1
     new r_m :   0.0203 (alat units)  0.8450 (a.u.) for type    2
     new r_m :   0.0578 (alat units)  2.4011 (a.u.) for type    3
2015-08-24 14:59:53.116 (INFO ) [0xfffaae234e0] 14848:tatu.runjob.monitor: tracklib completed


     bravais-lattice index     =            1
     lattice parameter (alat)  =      41.5740  a.u.
     unit-cell volume          =   71856.2666 (a.u.)^3
     number of atoms/cell      =           13
     number of atomic types    =            3
     number of electrons       =        37.00 (up:  19.00, down:  18.00)
     number of Kohn-Sham states=           40
     kinetic-energy cutoff     =     120.0000  Ry
     charge density cutoff     =     480.0000  Ry
     convergence threshold     =      1.0E-12
     mixing beta               =       0.7000
     number of iterations used =            8  plain     mixing
     Exchange-correlation      = PBE ( 1  4  3  4 0 0)
     Assuming isolated system, Martyna-Tuckerman method


     celldm(1)=  41.573975  celldm(2)=   0.000000  celldm(3)=   0.000000
     celldm(4)=   0.000000  celldm(5)=   0.000000  celldm(6)=   0.000000

     crystal axes: (cart. coord. in units of alat)
               a(1) = (   1.000000   0.000000   0.000000 )  
               a(2) = (   0.000000   1.000000   0.000000 )  
               a(3) = (   0.000000   0.000000   1.000000 )  

     reciprocal axes: (cart. coord. in units 2 pi/alat)
               b(1) = (  1.000000  0.000000  0.000000 )  
               b(2) = (  0.000000  1.000000  0.000000 )  
               b(3) = (  0.000000  0.000000  1.000000 )  


     PseudoPot. # 1 for  C read from file:
     ./C.pbe-mt_fhi.UPF
     MD5 check sum: 058ca341f9d6d5327d9962fd88a91b65
     Pseudo is Norm-conserving, Zval =  4.0
     Generated using FHI98PP, converted with fhi2upf.x v.5.0.2
     Using radial grid of  461 points,  3 beta functions with: 
                l(1) =   0
                l(2) =   1
                l(3) =   3

     PseudoPot. # 2 for  H read from file:
     ./H.pbe-mt_fhi.UPF
     MD5 check sum: a19bd5488733b3d98581df861506e80d
     Pseudo is Norm-conserving, Zval =  1.0
     Generated using FHI98PP, converted with fhi2upf.x v.5.0.2
     Using radial grid of  387 points,  3 beta functions with: 
                l(1) =   0
                l(2) =   1
                l(3) =   3

     PseudoPot. # 3 for Cl read from file:
     ./Cl.pbe-mt_fhi.UPF
     MD5 check sum: 2690b95bbfe21454a1a3af22474751ef
     Pseudo is Norm-conserving, Zval =  7.0
     Generated using FHI98PP, converted with fhi2upf.x v.5.0.2
     Using radial grid of  503 points,  3 beta functions with: 
                l(1) =   0
                l(2) =   1
                l(3) =   3

     atomic species   valence    mass     pseudopotential
        C              4.00    12.01070      C( 1.00)
        H              1.00     1.00794      H( 1.00)
        Cl             7.00     1.00000     Cl( 1.00)

     Starting magnetic structure 
     atomic species   magnetization
        C            0.000
        H            0.000
        Cl           0.000

     No symmetry found


                                    s                        frac. trans.

      isym =  1     identity                                     

 cryst.   s( 1) = (     1          0          0      )
                  (     0          1          0      )
                  (     0          0          1      )

 cart.    s( 1) = (  1.0000000  0.0000000  0.0000000 )
                  (  0.0000000  1.0000000  0.0000000 )
                  (  0.0000000  0.0000000  1.0000000 )


     point group C_1 (1)    
     there are  1 classes
     the character table:

       E    
A      1.00

     the symmetry operations in each class:
     E        1

   Cartesian axes

     site n.     atom                  positions (alat units)
         1           C   tau(   1) = (   0.0000000   0.0635000   0.0000000  )
         2           C   tau(   2) = (   0.0549909   0.0317500   0.0000000  )
         3           C   tau(   3) = (   0.0549909  -0.0317500   0.0000000  )
         4           C   tau(   4) = (   0.0000000  -0.0635000   0.0000000  )
         5           C   tau(   5) = (  -0.0549909  -0.0317500   0.0000000  )
         6           C   tau(   6) = (  -0.0549909   0.0317500   0.0000000  )
         7           H   tau(   7) = (   0.0000000   0.1127727   0.0000000  )
         8           H   tau(   8) = (   0.0976636   0.0563864   0.0000000  )
         9           H   tau(   9) = (   0.0976636  -0.0563864   0.0000000  )
        10           H   tau(  10) = (   0.0000000  -0.1127727   0.0000000  )
        11           H   tau(  11) = (  -0.0976636  -0.0563864   0.0000000  )
        12           H   tau(  12) = (  -0.0976636   0.0563864   0.0000000  )
        13           Cl  tau(  13) = (   0.0274955   0.0476250   0.1363636  )

   Crystallographic axes

     site n.     atom                  positions (cryst. coord.)
         1           C   tau(   1) = (  0.0000000  0.0635000  0.0000000  )
         2           C   tau(   2) = (  0.0549909  0.0317500  0.0000000  )
         3           C   tau(   3) = (  0.0549909 -0.0317500  0.0000000  )
         4           C   tau(   4) = (  0.0000000 -0.0635000  0.0000000  )
         5           C   tau(   5) = ( -0.0549909 -0.0317500  0.0000000  )
         6           C   tau(   6) = ( -0.0549909  0.0317500  0.0000000  )
         7           H   tau(   7) = (  0.0000000  0.1127727  0.0000000  )
         8           H   tau(   8) = (  0.0976636  0.0563864  0.0000000  )
         9           H   tau(   9) = (  0.0976636 -0.0563864  0.0000000  )
        10           H   tau(  10) = (  0.0000000 -0.1127727  0.0000000  )
        11           H   tau(  11) = ( -0.0976636 -0.0563864  0.0000000  )
        12           H   tau(  12) = ( -0.0976636  0.0563864  0.0000000  )
        13           Cl  tau(  13) = (  0.0274955  0.0476250  0.1363636  )

     number of k points=     2
                       cart. coord. in units 2pi/alat
        k(    1) = (   0.0000000   0.0000000   0.0000000), wk =   1.0000000
        k(    2) = (   0.0000000   0.0000000   0.0000000), wk =   1.0000000

                       cryst. coord.
        k(    1) = (   0.0000000   0.0000000   0.0000000), wk =   1.0000000
        k(    2) = (   0.0000000   0.0000000   0.0000000), wk =   1.0000000

     Dense  grid:  6380349 G-vectors     FFT dimensions: ( 308, 308, 308)

     Largest allocated arrays     est. size (Mb)     dimensions
        Kohn-Sham Wavefunctions         0.48 Mb     (     782,   40)
        NL pseudopotentials             1.71 Mb     (     782,  143)
        Each V/rho on FFT grid          2.90 Mb     (   94864,   2)
        Each G-vector array             0.05 Mb     (    6232)
        G-vector shells                 0.02 Mb     (    2800)
     Largest temporary arrays     est. size (Mb)     dimensions
        Each subspace H/S matrix        0.00 Mb     (       1,    1)
        Each <psi_i|beta_j> matrix      0.04 Mb     (     143,   40)
        Arrays for rho mixing          11.58 Mb     (   94864,    8)
 
     Using Hirshfeld
        Amplitude [Ry a.u.] : -3.8911E-01
        Acceptor Fragment start :          13
        Acceptor Fragment end   :          13
        Donor Fragment start :           1
        Donor Fragment end   :          12
 

     Initial potential from superposition of free atoms
     Check: negative starting charge=(component1):   -0.003540
     Check: negative starting charge=(component2):   -0.003540

     starting charge   36.99968, renormalised to   37.00000

     negative rho (up, down):  3.540E-03 3.540E-03
     Starting wfc are  208 randomized atomic wfcs

     total cpu time spent up to now is       51.8 secs

     per-process dynamical memory:    69.4 Mb

     Self-consistent Calculation

     iteration #  1     ecut=   120.00 Ry     beta=0.70
     CG style diagonalization
     ethr =  1.00E-02,  avg # of iterations =  3.7

     negative rho (up, down):  9.046E-04 9.250E-04
 
     Magnetic moment per site:
     atom:    1    charge:    1.0263    magn:    0.0315    constr:    0.0000
     atom:    2    charge:    1.0264    magn:    0.0319    constr:    0.0000
     atom:    3    charge:    1.0251    magn:    0.0309    constr:    0.0000
     atom:    4    charge:    1.0237    magn:    0.0300    constr:    0.0000
     atom:    5    charge:    1.0244    magn:    0.0301    constr:    0.0000
     atom:    6    charge:    1.0250    magn:    0.0307    constr:    0.0000
     atom:    7    charge:    0.4452    magn:    0.0012    constr:    0.0000
     atom:    8    charge:    0.4448    magn:    0.0012    constr:    0.0000
     atom:    9    charge:    0.4444    magn:    0.0011    constr:    0.0000
     atom:   10    charge:    0.4450    magn:    0.0012    constr:    0.0000
     atom:   11    charge:    0.4443    magn:    0.0012    constr:    0.0000
     atom:   12    charge:    0.4446    magn:    0.0013    constr:    0.0000
     atom:   13    charge:    3.1677    magn:    0.0005    constr:    0.0000

     total cpu time spent up to now is       62.2 secs

     The total energy is the sum of the following terms:

     one-electron contribution =    -729.49666523 Ry
     hartree contribution      =     372.59295499 Ry
     xc contribution           =     -31.51504328 Ry
     ewald contribution        =     268.46058250 Ry

     total energy              =    -103.22837642 Ry
     Harris-Foulkes estimate   =    -117.37067131 Ry
     estimated scf accuracy    <      16.83000348 Ry

     total magnetization       =     1.00 Bohr mag/cell
     absolute magnetization    =     1.00 Bohr mag/cell

     iteration #  2     ecut=   120.00 Ry     beta=0.70
     CG style diagonalization
     ethr =  1.00E-02,  avg # of iterations =  9.8

     negative rho (up, down):  5.955E-04 6.298E-04
 
     Magnetic moment per site:
     atom:    1    charge:    0.9004    magn:    0.0311    constr:    0.0000
     atom:    2    charge:    0.9004    magn:    0.0314    constr:    0.0000
     atom:    3    charge:    0.8938    magn:    0.0276    constr:    0.0000
     atom:    4    charge:    0.8906    magn:    0.0260    constr:    0.0000
     atom:    5    charge:    0.8912    magn:    0.0260    constr:    0.0000
     atom:    6    charge:    0.8937    magn:    0.0274    constr:    0.0000
     atom:    7    charge:    0.4430    magn:    0.0059    constr:    0.0000
     atom:    8    charge:    0.4428    magn:    0.0059    constr:    0.0000
     atom:    9    charge:    0.4330    magn:    0.0027    constr:    0.0000
     atom:   10    charge:    0.4320    magn:    0.0019    constr:    0.0000
     atom:   11    charge:    0.4315    magn:    0.0019    constr:    0.0000
     atom:   12    charge:    0.4332    magn:    0.0029    constr:    0.0000
     atom:   13    charge:    5.4104    magn:    0.0052    constr:    0.0000

     total cpu time spent up to now is       81.6 secs

     The total energy is the sum of the following terms:

     one-electron contribution =    -567.07055442 Ry
     hartree contribution      =     347.65414603 Ry
     xc contribution           =     -30.27859772 Ry
     ewald contribution        =     268.46058250 Ry

     total energy              =     -85.77506334 Ry
     Harris-Foulkes estimate   =    -140.74408383 Ry
     estimated scf accuracy    <     204.82056770 Ry

     total magnetization       =     1.00 Bohr mag/cell
     absolute magnetization    =     1.03 Bohr mag/cell

     iteration #  3     ecut=   120.00 Ry     beta=0.70
     CG style diagonalization
     ethr =  1.00E-02,  avg # of iterations =  9.2

     negative rho (up, down):  3.124E-04 3.146E-04
 
     Magnetic moment per site:
     atom:    1    charge:    0.8816    magn:    0.0183    constr:    0.0000
     atom:    2    charge:    0.8797    magn:    0.0211    constr:    0.0000
     atom:    3    charge:    0.8766    magn:    0.0202    constr:    0.0000
     atom:    4    charge:    0.8744    magn:    0.0218    constr:    0.0000
     atom:    5    charge:    0.8756    magn:    0.0211    constr:    0.0000
     atom:    6    charge:    0.8798    magn:    0.0170    constr:    0.0000
     atom:    7    charge:    0.4648    magn:    0.0036    constr:    0.0000
     atom:    8    charge:    0.4643    magn:    0.0036    constr:    0.0000
     atom:    9    charge:    0.4598    magn:    0.0014    constr:    0.0000
     atom:   10    charge:    0.4622    magn:    0.0017    constr:    0.0000
     atom:   11    charge:    0.4610    magn:    0.0021    constr:    0.0000
     atom:   12    charge:    0.4601    magn:    0.0014    constr:    0.0000
     atom:   13    charge:    5.6332    magn:    0.2918    constr:    0.0000

     total cpu time spent up to now is       99.8 secs

     The total energy is the sum of the following terms:

     one-electron contribution =    -702.83028554 Ry
     hartree contribution      =     349.87260159 Ry
     xc contribution           =     -30.54355464 Ry
     ewald contribution        =     268.46058250 Ry

     total energy              =    -114.34999208 Ry
     Harris-Foulkes estimate   =    -114.48784736 Ry
     estimated scf accuracy    <       0.56843617 Ry

     total magnetization       =     1.00 Bohr mag/cell
     absolute magnetization    =     1.13 Bohr mag/cell

     iteration #  4     ecut=   120.00 Ry     beta=0.70
     CG style diagonalization
     ethr =  1.54E-03,  avg # of iterations =  4.5

     negative rho (up, down):  2.194E-04 2.411E-04
 
     Magnetic moment per site:
     atom:    1    charge:    0.8576    magn:    0.0123    constr:    0.0000
     atom:    2    charge:    0.8616    magn:    0.0130    constr:    0.0000
     atom:    3    charge:    0.8597    magn:    0.0114    constr:    0.0000
     atom:    4    charge:    0.8514    magn:    0.0115    constr:    0.0000
     atom:    5    charge:    0.8521    magn:    0.0104    constr:    0.0000
     atom:    6    charge:    0.8522    magn:    0.0124    constr:    0.0000
     atom:    7    charge:    0.4841    magn:    0.0011    constr:    0.0000
     atom:    8    charge:    0.4839    magn:    0.0010    constr:    0.0000
     atom:    9    charge:    0.4835    magn:   -0.0007    constr:    0.0000
     atom:   10    charge:    0.4847    magn:    0.0000    constr:    0.0000
     atom:   11    charge:    0.4842    magn:    0.0002    constr:    0.0000
     atom:   12    charge:    0.4833    magn:   -0.0003    constr:    0.0000
     atom:   13    charge:    5.7390    magn:    0.5746    constr:    0.0000

     total cpu time spent up to now is      109.5 secs

     The total energy is the sum of the following terms:

     one-electron contribution =    -701.43446603 Ry
     hartree contribution      =     349.98900644 Ry
     xc contribution           =     -30.59971793 Ry
     ewald contribution        =     268.46058250 Ry

     total energy              =    -114.42449092 Ry
     Harris-Foulkes estimate   =    -114.45655354 Ry
     estimated scf accuracy    <       0.20889885 Ry

     total magnetization       =     1.00 Bohr mag/cell
     absolute magnetization    =     1.07 Bohr mag/cell

     iteration #  5     ecut=   120.00 Ry     beta=0.70
     CG style diagonalization
     ethr =  5.65E-04,  avg # of iterations =  3.3

     negative rho (up, down):  2.294E-04 3.190E-04
 
     Magnetic moment per site:
     atom:    1    charge:    0.8433    magn:    0.0067    constr:    0.0000
     atom:    2    charge:    0.8412    magn:    0.0062    constr:    0.0000
     atom:    3    charge:    0.8416    magn:    0.0048    constr:    0.0000
     atom:    4    charge:    0.8445    magn:    0.0032    constr:    0.0000
     atom:    5    charge:    0.8475    magn:    0.0026    constr:    0.0000
     atom:    6    charge:    0.8448    magn:    0.0072    constr:    0.0000
     atom:    7    charge:    0.4963    magn:   -0.0003    constr:    0.0000
     atom:    8    charge:    0.4958    magn:   -0.0004    constr:    0.0000
     atom:    9    charge:    0.4966    magn:   -0.0013    constr:    0.0000
     atom:   10    charge:    0.4972    magn:   -0.0007    constr:    0.0000
     atom:   11    charge:    0.4968    magn:   -0.0006    constr:    0.0000
     atom:   12    charge:    0.4967    magn:   -0.0010    constr:    0.0000
     atom:   13    charge:    5.8190    magn:    0.7952    constr:    0.0000

     total cpu time spent up to now is      117.1 secs

     The total energy is the sum of the following terms:

     one-electron contribution =    -702.32974076 Ry
     hartree contribution      =     350.34891156 Ry
     xc contribution           =     -30.68644353 Ry
     ewald contribution        =     268.46058250 Ry

     total energy              =    -114.42674487 Ry
     Harris-Foulkes estimate   =    -114.43961976 Ry
     estimated scf accuracy    <       0.06050304 Ry

     total magnetization       =     1.00 Bohr mag/cell
     absolute magnetization    =     1.08 Bohr mag/cell

     iteration #  6     ecut=   120.00 Ry     beta=0.70
     CG style diagonalization
     ethr =  1.64E-04,  avg # of iterations =  3.6

     negative rho (up, down):  1.026E-04 1.368E-04
 
     Magnetic moment per site:
     atom:    1    charge:    0.8453    magn:    0.0025    constr:    0.0000
     atom:    2    charge:    0.8448    magn:    0.0034    constr:    0.0000
     atom:    3    charge:    0.8462    magn:    0.0004    constr:    0.0000
     atom:    4    charge:    0.8455    magn:   -0.0004    constr:    0.0000
     atom:    5    charge:    0.8460    magn:   -0.0002    constr:    0.0000
     atom:    6    charge:    0.8451    magn:    0.0021    constr:    0.0000
     atom:    7    charge:    0.4954    magn:    0.0000    constr:    0.0000
     atom:    8    charge:    0.4949    magn:    0.0000    constr:    0.0000
     atom:    9    charge:    0.4947    magn:   -0.0010    constr:    0.0000
     atom:   10    charge:    0.4954    magn:   -0.0004    constr:    0.0000
     atom:   11    charge:    0.4949    magn:   -0.0003    constr:    0.0000
     atom:   12    charge:    0.4946    magn:   -0.0008    constr:    0.0000
     atom:   13    charge:    5.7679    magn:    0.8967    constr:    0.0000

     total cpu time spent up to now is      125.3 secs

     The total energy is the sum of the following terms:

     one-electron contribution =    -704.42355414 Ry
     hartree contribution      =     350.27793580 Ry
     xc contribution           =     -30.65415522 Ry
     ewald contribution        =     268.46058250 Ry

     total energy              =    -114.42928694 Ry
     Harris-Foulkes estimate   =    -114.44359545 Ry
     estimated scf accuracy    <       0.10643809 Ry

     total magnetization       =     1.00 Bohr mag/cell
     absolute magnetization    =     1.71 Bohr mag/cell

     iteration #  7     ecut=   120.00 Ry     beta=0.70
     CG style diagonalization
     ethr =  1.64E-04,  avg # of iterations =  3.0

     negative rho (up, down):  1.914E-04 2.785E-04
 
     Magnetic moment per site:
     atom:    1    charge:    0.8439    magn:   -0.0002    constr:    0.0000
     atom:    2    charge:    0.8441    magn:    0.0006    constr:    0.0000
     atom:    3    charge:    0.8444    magn:   -0.0025    constr:    0.0000
     atom:    4    charge:    0.8426    magn:   -0.0038    constr:    0.0000
     atom:    5    charge:    0.8430    magn:   -0.0039    constr:    0.0000
     atom:    6    charge:    0.8429    magn:    0.0000    constr:    0.0000
     atom:    7    charge:    0.4989    magn:   -0.0004    constr:    0.0000
     atom:    8    charge:    0.4985    magn:   -0.0005    constr:    0.0000
     atom:    9    charge:    0.4984    magn:   -0.0009    constr:    0.0000
     atom:   10    charge:    0.4987    magn:   -0.0005    constr:    0.0000
     atom:   11    charge:    0.4983    magn:   -0.0005    constr:    0.0000
     atom:   12    charge:    0.4984    magn:   -0.0008    constr:    0.0000
     atom:   13    charge:    5.8285    magn:    0.9838    constr:    0.0000

     total cpu time spent up to now is      132.2 secs

     The total energy is the sum of the following terms:

     one-electron contribution =    -702.74991377 Ry
     hartree contribution      =     350.81290371 Ry
     xc contribution           =     -30.74714881 Ry
     ewald contribution        =     268.46058250 Ry

     total energy              =    -114.43796413 Ry
     Harris-Foulkes estimate   =    -114.44315737 Ry
     estimated scf accuracy    <       0.02065770 Ry

     total magnetization       =     1.00 Bohr mag/cell
     absolute magnetization    =     1.18 Bohr mag/cell

     iteration #  8     ecut=   120.00 Ry     beta=0.70
     CG style diagonalization
     ethr =  5.58E-05,  avg # of iterations =  3.2

     negative rho (up, down):  1.540E-05 2.324E-05
 
     Magnetic moment per site:
     atom:    1    charge:    0.8465    magn:   -0.0051    constr:    0.0000
     atom:    2    charge:    0.8458    magn:   -0.0031    constr:    0.0000
     atom:    3    charge:    0.8462    magn:   -0.0072    constr:    0.0000
     atom:    4    charge:    0.8444    magn:   -0.0084    constr:    0.0000
     atom:    5    charge:    0.8449    magn:   -0.0082    constr:    0.0000
     atom:    6    charge:    0.8462    magn:   -0.0054    constr:    0.0000
     atom:    7    charge:    0.4976    magn:   -0.0001    constr:    0.0000
     atom:    8    charge:    0.4971    magn:   -0.0002    constr:    0.0000
     atom:    9    charge:    0.4961    magn:   -0.0005    constr:    0.0000
     atom:   10    charge:    0.4965    magn:   -0.0003    constr:    0.0000
     atom:   11    charge:    0.4960    magn:   -0.0002    constr:    0.0000
     atom:   12    charge:    0.4962    magn:   -0.0005    constr:    0.0000
     atom:   13    charge:    5.7966    magn:    1.1062    constr:    0.0000

     total cpu time spent up to now is      139.5 secs

     The total energy is the sum of the following terms:

     one-electron contribution =    -704.02897689 Ry
     hartree contribution      =     350.77732210 Ry
     xc contribution           =     -30.73398975 Ry
     ewald contribution        =     268.46058250 Ry

     total energy              =    -114.43850136 Ry
     Harris-Foulkes estimate   =    -114.44582999 Ry
     estimated scf accuracy    <       0.08012137 Ry

     total magnetization       =     1.00 Bohr mag/cell
     absolute magnetization    =     1.95 Bohr mag/cell

     iteration #  9     ecut=   120.00 Ry     beta=0.70
     CG style diagonalization
     ethr =  5.58E-05,  avg # of iterations =  3.1

     negative rho (up, down):  3.583E-08 3.469E-08
 
     Magnetic moment per site:
     atom:    1    charge:    0.8470    magn:   -0.0068    constr:    0.0000
     atom:    2    charge:    0.8468    magn:   -0.0044    constr:    0.0000
     atom:    3    charge:    0.8465    magn:   -0.0087    constr:    0.0000
     atom:    4    charge:    0.8450    magn:   -0.0103    constr:    0.0000
     atom:    5    charge:    0.8455    magn:   -0.0103    constr:    0.0000
     atom:    6    charge:    0.8462    magn:   -0.0072    constr:    0.0000
     atom:    7    charge:    0.4975    magn:    0.0001    constr:    0.0000
     atom:    8    charge:    0.4970    magn:    0.0000    constr:    0.0000
     atom:    9    charge:    0.4956    magn:   -0.0001    constr:    0.0000
     atom:   10    charge:    0.4959    magn:    0.0000    constr:    0.0000
     atom:   11    charge:    0.4953    magn:    0.0000    constr:    0.0000
     atom:   12    charge:    0.4956    magn:   -0.0002    constr:    0.0000
     atom:   13    charge:    5.7959    magn:    1.1484    constr:    0.0000

     total cpu time spent up to now is      146.8 secs

     The total energy is the sum of the following terms:

     one-electron contribution =    -702.79062634 Ry
     hartree contribution      =     350.80038315 Ry
     xc contribution           =     -30.73978040 Ry
     ewald contribution        =     268.46058250 Ry

     total energy              =    -114.44427331 Ry
     Harris-Foulkes estimate   =    -114.44391884 Ry
     estimated scf accuracy    <       0.00184584 Ry

     total magnetization       =     1.00 Bohr mag/cell
     absolute magnetization    =     1.47 Bohr mag/cell

     iteration # 10     ecut=   120.00 Ry     beta=0.70
     CG style diagonalization
     ethr =  4.99E-06,  avg # of iterations =  4.1

     negative rho (up, down):  1.705E-06 1.504E-06
 
     Magnetic moment per site:
     atom:    1    charge:    0.8469    magn:   -0.0071    constr:    0.0000
     atom:    2    charge:    0.8465    magn:   -0.0047    constr:    0.0000
     atom:    3    charge:    0.8462    magn:   -0.0092    constr:    0.0000
     atom:    4    charge:    0.8444    magn:   -0.0108    constr:    0.0000
     atom:    5    charge:    0.8450    magn:   -0.0110    constr:    0.0000
     atom:    6    charge:    0.8462    magn:   -0.0077    constr:    0.0000
     atom:    7    charge:    0.4978    magn:    0.0002    constr:    0.0000
     atom:    8    charge:    0.4973    magn:    0.0001    constr:    0.0000
     atom:    9    charge:    0.4959    magn:    0.0000    constr:    0.0000
     atom:   10    charge:    0.4961    magn:    0.0001    constr:    0.0000
     atom:   11    charge:    0.4956    magn:    0.0001    constr:    0.0000
     atom:   12    charge:    0.4960    magn:   -0.0001    constr:    0.0000
     atom:   13    charge:    5.7983    magn:    1.1583    constr:    0.0000

     total cpu time spent up to now is      155.8 secs

     The total energy is the sum of the following terms:

     one-electron contribution =    -702.78144373 Ry
     hartree contribution      =     350.82212010 Ry
     xc contribution           =     -30.74410124 Ry
     ewald contribution        =     268.46058250 Ry

     total energy              =    -114.44472094 Ry
     Harris-Foulkes estimate   =    -114.44458626 Ry
     estimated scf accuracy    <       0.00171019 Ry

     total magnetization       =     1.00 Bohr mag/cell
     absolute magnetization    =     1.51 Bohr mag/cell

     iteration # 11     ecut=   120.00 Ry     beta=0.70
     CG style diagonalization
     ethr =  4.62E-06,  avg # of iterations =  3.0

     negative rho (up, down):  1.749E-07 1.608E-07
 
     Magnetic moment per site:
     atom:    1    charge:    0.8462    magn:   -0.0070    constr:    0.0000
     atom:    2    charge:    0.8462    magn:   -0.0047    constr:    0.0000
     atom:    3    charge:    0.8461    magn:   -0.0095    constr:    0.0000
     atom:    4    charge:    0.8443    magn:   -0.0111    constr:    0.0000
     atom:    5    charge:    0.8448    magn:   -0.0115    constr:    0.0000
     atom:    6    charge:    0.8457    magn:   -0.0080    constr:    0.0000
     atom:    7    charge:    0.4979    magn:    0.0003    constr:    0.0000
     atom:    8    charge:    0.4975    magn:    0.0002    constr:    0.0000
     atom:    9    charge:    0.4962    magn:    0.0002    constr:    0.0000
     atom:   10    charge:    0.4964    magn:    0.0003    constr:    0.0000
     atom:   11    charge:    0.4959    magn:    0.0003    constr:    0.0000
     atom:   12    charge:    0.4962    magn:    0.0001    constr:    0.0000
     atom:   13    charge:    5.7977    magn:    1.1593    constr:    0.0000

     total cpu time spent up to now is      162.8 secs

     The total energy is the sum of the following terms:

     one-electron contribution =    -702.83123276 Ry
     hartree contribution      =     350.80283348 Ry
     xc contribution           =     -30.74180328 Ry
     ewald contribution        =     268.46058250 Ry

     total energy              =    -114.44508014 Ry
     Harris-Foulkes estimate   =    -114.44480978 Ry
     estimated scf accuracy    <       0.00078551 Ry

     total magnetization       =     1.00 Bohr mag/cell
     absolute magnetization    =     1.55 Bohr mag/cell

     iteration # 12     ecut=   120.00 Ry     beta=0.70
     CG style diagonalization
     ethr =  2.12E-06,  avg # of iterations =  3.1
 
     Magnetic moment per site:
     atom:    1    charge:    0.8459    magn:   -0.0068    constr:    0.0000
     atom:    2    charge:    0.8459    magn:   -0.0046    constr:    0.0000
     atom:    3    charge:    0.8458    magn:   -0.0096    constr:    0.0000
     atom:    4    charge:    0.8441    magn:   -0.0111    constr:    0.0000
     atom:    5    charge:    0.8447    magn:   -0.0117    constr:    0.0000
     atom:    6    charge:    0.8455    magn:   -0.0083    constr:    0.0000
     atom:    7    charge:    0.4981    magn:    0.0004    constr:    0.0000
     atom:    8    charge:    0.4977    magn:    0.0003    constr:    0.0000
     atom:    9    charge:    0.4964    magn:    0.0003    constr:    0.0000
     atom:   10    charge:    0.4966    magn:    0.0004    constr:    0.0000
     atom:   11    charge:    0.4961    magn:    0.0004    constr:    0.0000
     atom:   12    charge:    0.4964    magn:    0.0003    constr:    0.0000
     atom:   13    charge:    5.7981    magn:    1.1571    constr:    0.0000

     total cpu time spent up to now is      169.8 secs

     The total energy is the sum of the following terms:

     one-electron contribution =    -702.87832018 Ry
     hartree contribution      =     350.79602377 Ry
     xc contribution           =     -30.74129657 Ry
     ewald contribution        =     268.46058250 Ry

     total energy              =    -114.44556568 Ry
     Harris-Foulkes estimate   =    -114.44531856 Ry
     estimated scf accuracy    <       0.00058028 Ry

     total magnetization       =     1.00 Bohr mag/cell
     absolute magnetization    =     1.56 Bohr mag/cell

     iteration # 13     ecut=   120.00 Ry     beta=0.70
     CG style diagonalization
     ethr =  1.57E-06,  avg # of iterations =  3.2

     negative rho (up, down):  2.215E-06 1.968E-06
 
     Magnetic moment per site:
     atom:    1    charge:    0.8455    magn:   -0.0067    constr:    0.0000
     atom:    2    charge:    0.8456    magn:   -0.0046    constr:    0.0000
     atom:    3    charge:    0.8458    magn:   -0.0098    constr:    0.0000
     atom:    4    charge:    0.8442    magn:   -0.0113    constr:    0.0000
     atom:    5    charge:    0.8446    magn:   -0.0119    constr:    0.0000
     atom:    6    charge:    0.8456    magn:   -0.0084    constr:    0.0000
     atom:    7    charge:    0.4982    magn:    0.0004    constr:    0.0000
     atom:    8    charge:    0.4978    magn:    0.0003    constr:    0.0000
     atom:    9    charge:    0.4965    magn:    0.0003    constr:    0.0000
     atom:   10    charge:    0.4966    magn:    0.0004    constr:    0.0000
     atom:   11    charge:    0.4961    magn:    0.0004    constr:    0.0000
     atom:   12    charge:    0.4965    magn:    0.0003    constr:    0.0000
     atom:   13    charge:    5.8013    magn:    1.1591    constr:    0.0000

     total cpu time spent up to now is      177.2 secs

     The total energy is the sum of the following terms:

     one-electron contribution =    -702.93820023 Ry
     hartree contribution      =     350.81326701 Ry
     xc contribution           =     -30.74476993 Ry
     ewald contribution        =     268.46058250 Ry

     total energy              =    -114.44601183 Ry
     Harris-Foulkes estimate   =    -114.44589140 Ry
     estimated scf accuracy    <       0.00034277 Ry

     total magnetization       =     1.00 Bohr mag/cell
     absolute magnetization    =     1.58 Bohr mag/cell

     iteration # 14     ecut=   120.00 Ry     beta=0.70
     CG style diagonalization
     ethr =  9.26E-07,  avg # of iterations =  3.4

     negative rho (up, down):  4.683E-06 6.081E-06
 
     Magnetic moment per site:
     atom:    1    charge:    0.8460    magn:   -0.0057    constr:    0.0000
     atom:    2    charge:    0.8460    magn:   -0.0042    constr:    0.0000
     atom:    3    charge:    0.8460    magn:   -0.0093    constr:    0.0000
     atom:    4    charge:    0.8444    magn:   -0.0105    constr:    0.0000
     atom:    5    charge:    0.8450    magn:   -0.0112    constr:    0.0000
     atom:    6    charge:    0.8460    magn:   -0.0080    constr:    0.0000
     atom:    7    charge:    0.4978    magn:    0.0002    constr:    0.0000
     atom:    8    charge:    0.4974    magn:    0.0001    constr:    0.0000
     atom:    9    charge:    0.4961    magn:    0.0001    constr:    0.0000
     atom:   10    charge:    0.4963    magn:    0.0002    constr:    0.0000
     atom:   11    charge:    0.4958    magn:    0.0002    constr:    0.0000
     atom:   12    charge:    0.4961    magn:    0.0001    constr:    0.0000
     atom:   13    charge:    5.8020    magn:    1.1473    constr:    0.0000

     total cpu time spent up to now is      184.7 secs

     The total energy is the sum of the following terms:

     one-electron contribution =    -703.03084169 Ry
     hartree contribution      =     350.81061139 Ry
     xc contribution           =     -30.73900671 Ry
     ewald contribution        =     268.46058250 Ry

     total energy              =    -114.44623207 Ry
     Harris-Foulkes estimate   =    -114.44608256 Ry
     estimated scf accuracy    <       0.00060427 Ry

     total magnetization       =     1.00 Bohr mag/cell
     absolute magnetization    =     1.63 Bohr mag/cell

     iteration # 15     ecut=   120.00 Ry     beta=0.70
     CG style diagonalization
     ethr =  9.26E-07,  avg # of iterations =  3.2

     negative rho (up, down):  1.191E-06 1.847E-06
 
     Magnetic moment per site:
     atom:    1    charge:    0.8460    magn:   -0.0060    constr:    0.0000
     atom:    2    charge:    0.8463    magn:   -0.0041    constr:    0.0000
     atom:    3    charge:    0.8459    magn:   -0.0089    constr:    0.0000
     atom:    4    charge:    0.8442    magn:   -0.0104    constr:    0.0000
     atom:    5    charge:    0.8448    magn:   -0.0111    constr:    0.0000
     atom:    6    charge:    0.8453    magn:   -0.0075    constr:    0.0000
     atom:    7    charge:    0.4979    magn:    0.0003    constr:    0.0000
     atom:    8    charge:    0.4975    magn:    0.0002    constr:    0.0000
     atom:    9    charge:    0.4963    magn:    0.0002    constr:    0.0000
     atom:   10    charge:    0.4964    magn:    0.0003    constr:    0.0000
     atom:   11    charge:    0.4959    magn:    0.0003    constr:    0.0000
     atom:   12    charge:    0.4962    magn:    0.0002    constr:    0.0000
     atom:   13    charge:    5.8006    magn:    1.1412    constr:    0.0000

     total cpu time spent up to now is      191.8 secs

     The total energy is the sum of the following terms:

     one-electron contribution =    -703.04522624 Ry
     hartree contribution      =     350.80201499 Ry
     xc contribution           =     -30.73927611 Ry
     ewald contribution        =     268.46058250 Ry

     total energy              =    -114.44562684 Ry
     Harris-Foulkes estimate   =    -114.44647284 Ry
     estimated scf accuracy    <       0.00100266 Ry

     total magnetization       =     1.00 Bohr mag/cell
     absolute magnetization    =     1.64 Bohr mag/cell

     iteration # 16     ecut=   120.00 Ry     beta=0.70
     CG style diagonalization
     ethr =  9.26E-07,  avg # of iterations =  3.2

     negative rho (up, down):  3.719E-06 5.425E-06
 
     Magnetic moment per site:
     atom:    1    charge:    0.8461    magn:   -0.0055    constr:    0.0000
     atom:    2    charge:    0.8460    magn:   -0.0039    constr:    0.0000
     atom:    3    charge:    0.8458    magn:   -0.0084    constr:    0.0000
     atom:    4    charge:    0.8444    magn:   -0.0100    constr:    0.0000
     atom:    5    charge:    0.8452    magn:   -0.0107    constr:    0.0000
     atom:    6    charge:    0.8457    magn:   -0.0069    constr:    0.0000
     atom:    7    charge:    0.4978    magn:    0.0002    constr:    0.0000
     atom:    8    charge:    0.4974    magn:    0.0001    constr:    0.0000
     atom:    9    charge:    0.4961    magn:    0.0001    constr:    0.0000
     atom:   10    charge:    0.4963    magn:    0.0002    constr:    0.0000
     atom:   11    charge:    0.4958    magn:    0.0002    constr:    0.0000
     atom:   12    charge:    0.4961    magn:    0.0001    constr:    0.0000
     atom:   13    charge:    5.8022    magn:    1.1308    constr:    0.0000

     total cpu time spent up to now is      199.0 secs

     The total energy is the sum of the following terms:

     one-electron contribution =    -702.98412554 Ry
     hartree contribution      =     350.79080166 Ry
     xc contribution           =     -30.73812518 Ry
     ewald contribution        =     268.46058250 Ry

     total energy              =    -114.44580599 Ry
     Harris-Foulkes estimate   =    -114.44595341 Ry
     estimated scf accuracy    <       0.00059310 Ry

     total magnetization       =     1.00 Bohr mag/cell
     absolute magnetization    =     1.60 Bohr mag/cell

     iteration # 17     ecut=   120.00 Ry     beta=0.70
     CG style diagonalization
     ethr =  9.26E-07,  avg # of iterations =  3.1

     negative rho (up, down):  4.616E-06 6.561E-06
 
     Magnetic moment per site:
     atom:    1    charge:    0.8455    magn:   -0.0053    constr:    0.0000
     atom:    2    charge:    0.8457    magn:   -0.0038    constr:    0.0000
     atom:    3    charge:    0.8465    magn:   -0.0104    constr:    0.0000
     atom:    4    charge:    0.8443    magn:   -0.0107    constr:    0.0000
     atom:    5    charge:    0.8450    magn:   -0.0106    constr:    0.0000
     atom:    6    charge:    0.8464    magn:   -0.0094    constr:    0.0000
     atom:    7    charge:    0.4978    magn:    0.0002    constr:    0.0000
     atom:    8    charge:    0.4974    magn:    0.0001    constr:    0.0000
     atom:    9    charge:    0.4961    magn:    0.0001    constr:    0.0000
     atom:   10    charge:    0.4963    magn:    0.0002    constr:    0.0000
     atom:   11    charge:    0.4959    magn:    0.0003    constr:    0.0000
     atom:   12    charge:    0.4960    magn:    0.0001    constr:    0.0000
     atom:   13    charge:    5.7998    magn:    1.1533    constr:    0.0000

     total cpu time spent up to now is      206.0 secs

     The total energy is the sum of the following terms:

     one-electron contribution =    -703.03841177 Ry
     hartree contribution      =     350.83691080 Ry
     xc contribution           =     -30.73945018 Ry
     ewald contribution        =     268.46058250 Ry

     total energy              =    -114.44411342 Ry
     Harris-Foulkes estimate   =    -114.44583833 Ry
     estimated scf accuracy    <       0.00110847 Ry

     total magnetization       =     1.00 Bohr mag/cell
     absolute magnetization    =     1.62 Bohr mag/cell

     iteration # 18     ecut=   120.00 Ry     beta=0.70
     CG style diagonalization
     ethr =  9.26E-07,  avg # of iterations =  4.0

     negative rho (up, down):  8.793E-07 1.105E-06
 
     Magnetic moment per site:
     atom:    1    charge:    0.8452    magn:   -0.0057    constr:    0.0000
     atom:    2    charge:    0.8455    magn:   -0.0042    constr:    0.0000
     atom:    3    charge:    0.8466    magn:   -0.0118    constr:    0.0000
     atom:    4    charge:    0.8440    magn:   -0.0117    constr:    0.0000
     atom:    5    charge:    0.8445    magn:   -0.0114    constr:    0.0000
     atom:    6    charge:    0.8466    magn:   -0.0111    constr:    0.0000
     atom:    7    charge:    0.4980    magn:    0.0003    constr:    0.0000
     atom:    8    charge:    0.4976    magn:    0.0002    constr:    0.0000
     atom:    9    charge:    0.4961    magn:    0.0003    constr:    0.0000
     atom:   10    charge:    0.4964    magn:    0.0004    constr:    0.0000
     atom:   11    charge:    0.4959    magn:    0.0004    constr:    0.0000
     atom:   12    charge:    0.4961    magn:    0.0002    constr:    0.0000
     atom:   13    charge:    5.7985    magn:    1.1757    constr:    0.0000

     total cpu time spent up to now is      214.6 secs

     The total energy is the sum of the following terms:

     one-electron contribution =    -702.93641413 Ry
     hartree contribution      =     350.84530428 Ry
     xc contribution           =     -30.74736664 Ry
     ewald contribution        =     268.46058250 Ry

     total energy              =    -114.44710958 Ry
     Harris-Foulkes estimate   =    -114.44735435 Ry
     estimated scf accuracy    <       0.00041135 Ry

     total magnetization       =     1.00 Bohr mag/cell
     absolute magnetization    =     1.58 Bohr mag/cell

     iteration # 19     ecut=   120.00 Ry     beta=0.70
     CG style diagonalization
     ethr =  9.26E-07,  avg # of iterations =  3.5

     negative rho (up, down):  5.624E-07 4.443E-06
 
     Magnetic moment per site:
     atom:    1    charge:    0.8450    magn:   -0.0057    constr:    0.0000
     atom:    2    charge:    0.8455    magn:   -0.0045    constr:    0.0000
     atom:    3    charge:    0.8461    magn:   -0.0124    constr:    0.0000
     atom:    4    charge:    0.8440    magn:   -0.0121    constr:    0.0000
     atom:    5    charge:    0.8446    magn:   -0.0119    constr:    0.0000
     atom:    6    charge:    0.8462    magn:   -0.0119    constr:    0.0000
     atom:    7    charge:    0.4983    magn:    0.0004    constr:    0.0000
     atom:    8    charge:    0.4979    magn:    0.0003    constr:    0.0000
     atom:    9    charge:    0.4963    magn:    0.0005    constr:    0.0000
     atom:   10    charge:    0.4965    magn:    0.0005    constr:    0.0000
     atom:   11    charge:    0.4961    magn:    0.0005    constr:    0.0000
     atom:   12    charge:    0.4963    magn:    0.0004    constr:    0.0000
     atom:   13    charge:    5.7981    magn:    1.1843    constr:    0.0000

     total cpu time spent up to now is      222.3 secs

     The total energy is the sum of the following terms:

     one-electron contribution =    -702.94680110 Ry
     hartree contribution      =     350.85651384 Ry
     xc contribution           =     -30.75455796 Ry
     ewald contribution        =     268.46058250 Ry

     total energy              =    -114.44739762 Ry
     Harris-Foulkes estimate   =    -114.44791032 Ry
     estimated scf accuracy    <       0.00031182 Ry

     total magnetization       =     1.00 Bohr mag/cell
     absolute magnetization    =     1.58 Bohr mag/cell

     iteration # 20     ecut=   120.00 Ry     beta=0.70
     CG style diagonalization
     ethr =  8.43E-07,  avg # of iterations =  3.5

     negative rho (up, down):  1.763E-07 1.588E-07
 
     Magnetic moment per site:
     atom:    1    charge:    0.8457    magn:   -0.0062    constr:    0.0000
     atom:    2    charge:    0.8457    magn:   -0.0047    constr:    0.0000
     atom:    3    charge:    0.8455    magn:   -0.0095    constr:    0.0000
     atom:    4    charge:    0.8439    magn:   -0.0109    constr:    0.0000
     atom:    5    charge:    0.8447    magn:   -0.0117    constr:    0.0000
     atom:    6    charge:    0.8456    magn:   -0.0083    constr:    0.0000
     atom:    7    charge:    0.4982    magn:    0.0003    constr:    0.0000
     atom:    8    charge:    0.4978    magn:    0.0002    constr:    0.0000
     atom:    9    charge:    0.4964    magn:    0.0003    constr:    0.0000
     atom:   10    charge:    0.4965    magn:    0.0004    constr:    0.0000
     atom:   11    charge:    0.4960    magn:    0.0004    constr:    0.0000
     atom:   12    charge:    0.4964    magn:    0.0003    constr:    0.0000
     atom:   13    charge:    5.7991    magn:    1.1537    constr:    0.0000

     total cpu time spent up to now is      230.0 secs

     The total energy is the sum of the following terms:

     one-electron contribution =    -702.95308735 Ry
     hartree contribution      =     350.79494023 Ry
     xc contribution           =     -30.73295579 Ry
     ewald contribution        =     268.46058250 Ry

     total energy              =    -114.44121253 Ry
     Harris-Foulkes estimate   =    -114.44793544 Ry
     estimated scf accuracy    <       0.00066131 Ry

     total magnetization       =     1.00 Bohr mag/cell
     absolute magnetization    =     1.57 Bohr mag/cell

     iteration # 21     ecut=   120.00 Ry     beta=0.70
     CG style diagonalization
     ethr =  8.43E-07,  avg # of iterations =  4.2

     negative rho (up, down):  2.617E-07 2.458E-07
 
     Magnetic moment per site:
     atom:    1    charge:    0.8450    magn:   -0.0057    constr:    0.0000
     atom:    2    charge:    0.8454    magn:   -0.0046    constr:    0.0000
     atom:    3    charge:    0.8464    magn:   -0.0113    constr:    0.0000
     atom:    4    charge:    0.8440    magn:   -0.0115    constr:    0.0000
     atom:    5    charge:    0.8444    magn:   -0.0119    constr:    0.0000
     atom:    6    charge:    0.8462    magn:   -0.0106    constr:    0.0000
     atom:    7    charge:    0.4983    magn:    0.0004    constr:    0.0000
     atom:    8    charge:    0.4979    magn:    0.0003    constr:    0.0000
     atom:    9    charge:    0.4964    magn:    0.0005    constr:    0.0000
     atom:   10    charge:    0.4966    magn:    0.0005    constr:    0.0000
     atom:   11    charge:    0.4961    magn:    0.0005    constr:    0.0000
     atom:   12    charge:    0.4964    magn:    0.0005    constr:    0.0000
     atom:   13    charge:    5.7992    magn:    1.1692    constr:    0.0000

     total cpu time spent up to now is      238.9 secs

     The total energy is the sum of the following terms:

     one-electron contribution =    -702.98803532 Ry
     hartree contribution      =     350.84671871 Ry
     xc contribution           =     -30.74641232 Ry
     ewald contribution        =     268.46058250 Ry

     total energy              =    -114.44427663 Ry
     Harris-Foulkes estimate   =    -114.44655932 Ry
     estimated scf accuracy    <       0.00096638 Ry

     total magnetization       =     1.00 Bohr mag/cell
     absolute magnetization    =     1.60 Bohr mag/cell

     iteration # 22     ecut=   120.00 Ry     beta=0.70
     CG style diagonalization
     ethr =  8.43E-07,  avg # of iterations =  4.0

     negative rho (up, down):  3.663E-07 1.389E-06
 
     Magnetic moment per site:
     atom:    1    charge:    0.8449    magn:   -0.0053    constr:    0.0000
     atom:    2    charge:    0.8454    magn:   -0.0047    constr:    0.0000
     atom:    3    charge:    0.8464    magn:   -0.0115    constr:    0.0000
     atom:    4    charge:    0.8440    magn:   -0.0114    constr:    0.0000
     atom:    5    charge:    0.8444    magn:   -0.0119    constr:    0.0000
     atom:    6    charge:    0.8463    magn:   -0.0110    constr:    0.0000
     atom:    7    charge:    0.4983    magn:    0.0004    constr:    0.0000
     atom:    8    charge:    0.4979    magn:    0.0003    constr:    0.0000
     atom:    9    charge:    0.4964    magn:    0.0005    constr:    0.0000
     atom:   10    charge:    0.4965    magn:    0.0005    constr:    0.0000
     atom:   11    charge:    0.4961    magn:    0.0006    constr:    0.0000
     atom:   12    charge:    0.4964    magn:    0.0005    constr:    0.0000
     atom:   13    charge:    5.8002    magn:    1.1675    constr:    0.0000

     total cpu time spent up to now is      247.4 secs

     The total energy is the sum of the following terms:

     one-electron contribution =    -702.96118180 Ry
     hartree contribution      =     350.86953161 Ry
     xc contribution           =     -30.75349373 Ry
     ewald contribution        =     268.46058250 Ry

     total energy              =    -114.44731163 Ry
     Harris-Foulkes estimate   =    -114.44804319 Ry
     estimated scf accuracy    <       0.00026382 Ry

     total magnetization       =     1.00 Bohr mag/cell
     absolute magnetization    =     1.58 Bohr mag/cell

     iteration # 23     ecut=   120.00 Ry     beta=0.70
     CG style diagonalization
     ethr =  7.13E-07,  avg # of iterations =  3.5
 
     Magnetic moment per site:
     atom:    1    charge:    0.8454    magn:   -0.0052    constr:    0.0000
     atom:    2    charge:    0.8455    magn:   -0.0047    constr:    0.0000
     atom:    3    charge:    0.8456    magn:   -0.0094    constr:    0.0000
     atom:    4    charge:    0.8442    magn:   -0.0102    constr:    0.0000
     atom:    5    charge:    0.8447    magn:   -0.0116    constr:    0.0000
     atom:    6    charge:    0.8456    magn:   -0.0086    constr:    0.0000
     atom:    7    charge:    0.4983    magn:    0.0003    constr:    0.0000
     atom:    8    charge:    0.4979    magn:    0.0003    constr:    0.0000
     atom:    9    charge:    0.4965    magn:    0.0005    constr:    0.0000
     atom:   10    charge:    0.4966    magn:    0.0005    constr:    0.0000
     atom:   11    charge:    0.4961    magn:    0.0005    constr:    0.0000
     atom:   12    charge:    0.4965    magn:    0.0004    constr:    0.0000
     atom:   13    charge:    5.8022    magn:    1.1386    constr:    0.0000

     total cpu time spent up to now is      254.9 secs

     The total energy is the sum of the following terms:

     one-electron contribution =    -702.95978256 Ry
     hartree contribution      =     350.83256560 Ry
     xc contribution           =     -30.73587915 Ry
     ewald contribution        =     268.46058250 Ry

     total energy              =    -114.44732793 Ry
     Harris-Foulkes estimate   =    -114.44815674 Ry
     estimated scf accuracy    <       0.00043169 Ry

     total magnetization       =     1.00 Bohr mag/cell
     absolute magnetization    =     1.57 Bohr mag/cell

     iteration # 24     ecut=   120.00 Ry     beta=0.70
     CG style diagonalization
     ethr =  7.13E-07,  avg # of iterations =  3.7
 
     Magnetic moment per site:
     atom:    1    charge:    0.8454    magn:   -0.0053    constr:    0.0000
     atom:    2    charge:    0.8456    magn:   -0.0047    constr:    0.0000
     atom:    3    charge:    0.8457    magn:   -0.0096    constr:    0.0000
     atom:    4    charge:    0.8442    magn:   -0.0104    constr:    0.0000
     atom:    5    charge:    0.8447    magn:   -0.0116    constr:    0.0000
     atom:    6    charge:    0.8456    magn:   -0.0087    constr:    0.0000
     atom:    7    charge:    0.4983    magn:    0.0003    constr:    0.0000
     atom:    8    charge:    0.4979    magn:    0.0003    constr:    0.0000
     atom:    9    charge:    0.4965    magn:    0.0005    constr:    0.0000
     atom:   10    charge:    0.4966    magn:    0.0005    constr:    0.0000
     atom:   11    charge:    0.4961    magn:    0.0005    constr:    0.0000
     atom:   12    charge:    0.4964    magn:    0.0004    constr:    0.0000
     atom:   13    charge:    5.8013    magn:    1.1434    constr:    0.0000

     total cpu time spent up to now is      262.9 secs

     The total energy is the sum of the following terms:

     one-electron contribution =    -703.01406369 Ry
     hartree contribution      =     350.82941678 Ry
     xc contribution           =     -30.73626187 Ry
     ewald contribution        =     268.46058250 Ry

     total energy              =    -114.44781007 Ry
     Harris-Foulkes estimate   =    -114.44800743 Ry
     estimated scf accuracy    <       0.00046491 Ry

     total magnetization       =     1.00 Bohr mag/cell
     absolute magnetization    =     1.59 Bohr mag/cell

     iteration # 25     ecut=   120.00 Ry     beta=0.70
     CG style diagonalization
     ethr =  7.13E-07,  avg # of iterations =  3.1
 
     Magnetic moment per site:
     atom:    1    charge:    0.8455    magn:   -0.0054    constr:    0.0000
     atom:    2    charge:    0.8456    magn:   -0.0047    constr:    0.0000
     atom:    3    charge:    0.8457    magn:   -0.0095    constr:    0.0000
     atom:    4    charge:    0.8442    magn:   -0.0105    constr:    0.0000
     atom:    5    charge:    0.8447    magn:   -0.0117    constr:    0.0000
     atom:    6    charge:    0.8457    magn:   -0.0086    constr:    0.0000
     atom:    7    charge:    0.4983    magn:    0.0003    constr:    0.0000
     atom:    8    charge:    0.4978    magn:    0.0003    constr:    0.0000
     atom:    9    charge:    0.4964    magn:    0.0004    constr:    0.0000
     atom:   10    charge:    0.4966    magn:    0.0005    constr:    0.0000
     atom:   11    charge:    0.4960    magn:    0.0005    constr:    0.0000
     atom:   12    charge:    0.4964    magn:    0.0004    constr:    0.0000
     atom:   13    charge:    5.8010    magn:    1.1438    constr:    0.0000

     total cpu time spent up to now is      269.7 secs

     The total energy is the sum of the following terms:

     one-electron contribution =    -703.00095636 Ry
     hartree contribution      =     350.82468146 Ry
     xc contribution           =     -30.73581935 Ry
     ewald contribution        =     268.46058250 Ry

     total energy              =    -114.44767886 Ry
     Harris-Foulkes estimate   =    -114.44789103 Ry
     estimated scf accuracy    <       0.00049242 Ry

     total magnetization       =     1.00 Bohr mag/cell
     absolute magnetization    =     1.59 Bohr mag/cell

     iteration # 26     ecut=   120.00 Ry     beta=0.70
     CG style diagonalization
     ethr =  7.13E-07,  avg # of iterations =  3.1
 
     Magnetic moment per site:
     atom:    1    charge:    0.8451    magn:   -0.0048    constr:    0.0000
     atom:    2    charge:    0.8454    magn:   -0.0047    constr:    0.0000
     atom:    3    charge:    0.8456    magn:   -0.0099    constr:    0.0000
     atom:    4    charge:    0.8442    magn:   -0.0101    constr:    0.0000
     atom:    5    charge:    0.8446    magn:   -0.0112    constr:    0.0000
     atom:    6    charge:    0.8456    magn:   -0.0093    constr:    0.0000
     atom:    7    charge:    0.4984    magn:    0.0003    constr:    0.0000
     atom:    8    charge:    0.4980    magn:    0.0003    constr:    0.0000
     atom:    9    charge:    0.4965    magn:    0.0005    constr:    0.0000
     atom:   10    charge:    0.4966    magn:    0.0005    constr:    0.0000
     atom:   11    charge:    0.4961    magn:    0.0005    constr:    0.0000
     atom:   12    charge:    0.4965    magn:    0.0005    constr:    0.0000
     atom:   13    charge:    5.8034    magn:    1.1390    constr:    0.0000

     total cpu time spent up to now is      276.5 secs

     The total energy is the sum of the following terms:

     one-electron contribution =    -702.99874507 Ry
     hartree contribution      =     350.85040232 Ry
     xc contribution           =     -30.74142618 Ry
     ewald contribution        =     268.46058250 Ry

     total energy              =    -114.44614676 Ry
     Harris-Foulkes estimate   =    -114.44774297 Ry
     estimated scf accuracy    <       0.00056293 Ry

     total magnetization       =     1.00 Bohr mag/cell
     absolute magnetization    =     1.59 Bohr mag/cell

     iteration # 27     ecut=   120.00 Ry     beta=0.70
     CG style diagonalization
     ethr =  7.13E-07,  avg # of iterations =  3.6
 
     Magnetic moment per site:
     atom:    1    charge:    0.8449    magn:   -0.0048    constr:    0.0000
     atom:    2    charge:    0.8454    magn:   -0.0045    constr:    0.0000
     atom:    3    charge:    0.8461    magn:   -0.0100    constr:    0.0000
     atom:    4    charge:    0.8440    magn:   -0.0101    constr:    0.0000
     atom:    5    charge:    0.8445    magn:   -0.0110    constr:    0.0000
     atom:    6    charge:    0.8460    magn:   -0.0094    constr:    0.0000
     atom:    7    charge:    0.4984    magn:    0.0003    constr:    0.0000
     atom:    8    charge:    0.4979    magn:    0.0003    constr:    0.0000
     atom:    9    charge:    0.4964    magn:    0.0004    constr:    0.0000
     atom:   10    charge:    0.4966    magn:    0.0004    constr:    0.0000
     atom:   11    charge:    0.4961    magn:    0.0005    constr:    0.0000
     atom:   12    charge:    0.4964    magn:    0.0004    constr:    0.0000
     atom:   13    charge:    5.8034    magn:    1.1406    constr:    0.0000

     total cpu time spent up to now is      284.2 secs

     The total energy is the sum of the following terms:

     one-electron contribution =    -703.03088088 Ry
     hartree contribution      =     350.85726511 Ry
     xc contribution           =     -30.74030745 Ry
     ewald contribution        =     268.46058250 Ry

     total energy              =    -114.44840133 Ry
     Harris-Foulkes estimate   =    -114.44845181 Ry
     estimated scf accuracy    <       0.00006082 Ry

     total magnetization       =     1.00 Bohr mag/cell
     absolute magnetization    =     1.58 Bohr mag/cell

     iteration # 28     ecut=   120.00 Ry     beta=0.70
     CG style diagonalization
     ethr =  1.64E-07,  avg # of iterations =  3.3
 
     Magnetic moment per site:
     atom:    1    charge:    0.8448    magn:   -0.0047    constr:    0.0000
     atom:    2    charge:    0.8453    magn:   -0.0044    constr:    0.0000
     atom:    3    charge:    0.8462    magn:   -0.0102    constr:    0.0000
     atom:    4    charge:    0.8439    magn:   -0.0100    constr:    0.0000
     atom:    5    charge:    0.8444    magn:   -0.0106    constr:    0.0000
     atom:    6    charge:    0.8462    magn:   -0.0098    constr:    0.0000
     atom:    7    charge:    0.4984    magn:    0.0003    constr:    0.0000
     atom:    8    charge:    0.4979    magn:    0.0002    constr:    0.0000
     atom:    9    charge:    0.4964    magn:    0.0004    constr:    0.0000
     atom:   10    charge:    0.4966    magn:    0.0004    constr:    0.0000
     atom:   11    charge:    0.4961    magn:    0.0005    constr:    0.0000
     atom:   12    charge:    0.4964    magn:    0.0004    constr:    0.0000
     atom:   13    charge:    5.8042    magn:    1.1396    constr:    0.0000

     total cpu time spent up to now is      291.4 secs

     The total energy is the sum of the following terms:

     one-electron contribution =    -703.01795803 Ry
     hartree contribution      =     350.86369827 Ry
     xc contribution           =     -30.74174547 Ry
     ewald contribution        =     268.46058250 Ry

     total energy              =    -114.44829707 Ry
     Harris-Foulkes estimate   =    -114.44841294 Ry
     estimated scf accuracy    <       0.00011745 Ry

     total magnetization       =     1.00 Bohr mag/cell
     absolute magnetization    =     1.58 Bohr mag/cell

     iteration # 29     ecut=   120.00 Ry     beta=0.70
     CG style diagonalization
     ethr =  1.64E-07,  avg # of iterations =  3.6
 
     Magnetic moment per site:
     atom:    1    charge:    0.8447    magn:   -0.0044    constr:    0.0000
     atom:    2    charge:    0.8452    magn:   -0.0042    constr:    0.0000
     atom:    3    charge:    0.8463    magn:   -0.0104    constr:    0.0000
     atom:    4    charge:    0.8439    magn:   -0.0099    constr:    0.0000
     atom:    5    charge:    0.8443    magn:   -0.0102    constr:    0.0000
     atom:    6    charge:    0.8463    magn:   -0.0102    constr:    0.0000
     atom:    7    charge:    0.4985    magn:    0.0002    constr:    0.0000
     atom:    8    charge:    0.4980    magn:    0.0002    constr:    0.0000
     atom:    9    charge:    0.4964    magn:    0.0004    constr:    0.0000
     atom:   10    charge:    0.4966    magn:    0.0004    constr:    0.0000
     atom:   11    charge:    0.4961    magn:    0.0004    constr:    0.0000
     atom:   12    charge:    0.4964    magn:    0.0003    constr:    0.0000
     atom:   13    charge:    5.8049    magn:    1.1387    constr:    0.0000

     total cpu time spent up to now is      299.1 secs

     The total energy is the sum of the following terms:

     one-electron contribution =    -703.02768976 Ry
     hartree contribution      =     350.87290238 Ry
     xc contribution           =     -30.74438419 Ry
     ewald contribution        =     268.46058250 Ry

     total energy              =    -114.44833440 Ry
     Harris-Foulkes estimate   =    -114.44851381 Ry
     estimated scf accuracy    <       0.00003868 Ry

     total magnetization       =     1.00 Bohr mag/cell
     absolute magnetization    =     1.58 Bohr mag/cell

     iteration # 30     ecut=   120.00 Ry     beta=0.70
     CG style diagonalization
     ethr =  1.05E-07,  avg # of iterations =  3.9
 
     Magnetic moment per site:
     atom:    1    charge:    0.8448    magn:   -0.0044    constr:    0.0000
     atom:    2    charge:    0.8453    magn:   -0.0042    constr:    0.0000
     atom:    3    charge:    0.8462    magn:   -0.0104    constr:    0.0000
     atom:    4    charge:    0.8439    magn:   -0.0099    constr:    0.0000
     atom:    5    charge:    0.8444    magn:   -0.0102    constr:    0.0000
     atom:    6    charge:    0.8462    magn:   -0.0101    constr:    0.0000
     atom:    7    charge:    0.4985    magn:    0.0002    constr:    0.0000
     atom:    8    charge:    0.4980    magn:    0.0002    constr:    0.0000
     atom:    9    charge:    0.4964    magn:    0.0004    constr:    0.0000
     atom:   10    charge:    0.4966    magn:    0.0004    constr:    0.0000
     atom:   11    charge:    0.4961    magn:    0.0004    constr:    0.0000
     atom:   12    charge:    0.4964    magn:    0.0004    constr:    0.0000
     atom:   13    charge:    5.8050    magn:    1.1375    constr:    0.0000

     total cpu time spent up to now is      307.3 secs

     The total energy is the sum of the following terms:

     one-electron contribution =    -703.03102782 Ry
     hartree contribution      =     350.87167476 Ry
     xc contribution           =     -30.74453084 Ry
     ewald contribution        =     268.46058250 Ry

     total energy              =    -114.44855741 Ry
     Harris-Foulkes estimate   =    -114.44855851 Ry
     estimated scf accuracy    <       0.00000228 Ry

     total magnetization       =     1.00 Bohr mag/cell
     absolute magnetization    =     1.58 Bohr mag/cell

     iteration # 31     ecut=   120.00 Ry     beta=0.70
     CG style diagonalization
     ethr =  6.15E-09,  avg # of iterations =  4.3
 
     Magnetic moment per site:
     atom:    1    charge:    0.8448    magn:   -0.0044    constr:    0.0000
     atom:    2    charge:    0.8453    magn:   -0.0042    constr:    0.0000
     atom:    3    charge:    0.8461    magn:   -0.0104    constr:    0.0000
     atom:    4    charge:    0.8440    magn:   -0.0099    constr:    0.0000
     atom:    5    charge:    0.8444    magn:   -0.0102    constr:    0.0000
     atom:    6    charge:    0.8461    magn:   -0.0102    constr:    0.0000
     atom:    7    charge:    0.4985    magn:    0.0002    constr:    0.0000
     atom:    8    charge:    0.4980    magn:    0.0002    constr:    0.0000
     atom:    9    charge:    0.4964    magn:    0.0004    constr:    0.0000
     atom:   10    charge:    0.4966    magn:    0.0004    constr:    0.0000
     atom:   11    charge:    0.4961    magn:    0.0004    constr:    0.0000
     atom:   12    charge:    0.4964    magn:    0.0004    constr:    0.0000
     atom:   13    charge:    5.8049    magn:    1.1376    constr:    0.0000

     total cpu time spent up to now is      316.3 secs

     The total energy is the sum of the following terms:

     one-electron contribution =    -703.03493727 Ry
     hartree contribution      =     350.86970664 Ry
     xc contribution           =     -30.74376876 Ry
     ewald contribution        =     268.46058250 Ry

     total energy              =    -114.44855073 Ry
     Harris-Foulkes estimate   =    -114.44855800 Ry
     estimated scf accuracy    <       0.00000144 Ry

     total magnetization       =     1.00 Bohr mag/cell
     absolute magnetization    =     1.58 Bohr mag/cell

     iteration # 32     ecut=   120.00 Ry     beta=0.70
     CG style diagonalization
     ethr =  3.89E-09,  avg # of iterations =  3.7
 
     Magnetic moment per site:
     atom:    1    charge:    0.8449    magn:   -0.0043    constr:    0.0000
     atom:    2    charge:    0.8453    magn:   -0.0041    constr:    0.0000
     atom:    3    charge:    0.8460    magn:   -0.0105    constr:    0.0000
     atom:    4    charge:    0.8440    magn:   -0.0099    constr:    0.0000
     atom:    5    charge:    0.8445    magn:   -0.0100    constr:    0.0000
     atom:    6    charge:    0.8460    magn:   -0.0104    constr:    0.0000
     atom:    7    charge:    0.4985    magn:    0.0002    constr:    0.0000
     atom:    8    charge:    0.4980    magn:    0.0002    constr:    0.0000
     atom:    9    charge:    0.4964    magn:    0.0004    constr:    0.0000
     atom:   10    charge:    0.4966    magn:    0.0004    constr:    0.0000
     atom:   11    charge:    0.4961    magn:    0.0004    constr:    0.0000
     atom:   12    charge:    0.4964    magn:    0.0004    constr:    0.0000
     atom:   13    charge:    5.8049    magn:    1.1372    constr:    0.0000

     total cpu time spent up to now is      324.1 secs

     The total energy is the sum of the following terms:

     one-electron contribution =    -703.03452311 Ry
     hartree contribution      =     350.86916402 Ry
     xc contribution           =     -30.74339835 Ry
     ewald contribution        =     268.46058250 Ry

     total energy              =    -114.44855490 Ry
     Harris-Foulkes estimate   =    -114.44855714 Ry
     estimated scf accuracy    <       0.00000143 Ry

     total magnetization       =     1.00 Bohr mag/cell
     absolute magnetization    =     1.58 Bohr mag/cell

     iteration # 33     ecut=   120.00 Ry     beta=0.70
     CG style diagonalization
     ethr =  3.87E-09,  avg # of iterations =  3.4
 
     Magnetic moment per site:
     atom:    1    charge:    0.8448    magn:   -0.0043    constr:    0.0000
     atom:    2    charge:    0.8453    magn:   -0.0041    constr:    0.0000
     atom:    3    charge:    0.8461    magn:   -0.0105    constr:    0.0000
     atom:    4    charge:    0.8440    magn:   -0.0099    constr:    0.0000
     atom:    5    charge:    0.8444    magn:   -0.0099    constr:    0.0000
     atom:    6    charge:    0.8461    magn:   -0.0104    constr:    0.0000
     atom:    7    charge:    0.4985    magn:    0.0002    constr:    0.0000
     atom:    8    charge:    0.4980    magn:    0.0002    constr:    0.0000
     atom:    9    charge:    0.4964    magn:    0.0004    constr:    0.0000
     atom:   10    charge:    0.4966    magn:    0.0004    constr:    0.0000
     atom:   11    charge:    0.4961    magn:    0.0004    constr:    0.0000
     atom:   12    charge:    0.4964    magn:    0.0004    constr:    0.0000
     atom:   13    charge:    5.8051    magn:    1.1373    constr:    0.0000

     total cpu time spent up to now is      331.5 secs

     The total energy is the sum of the following terms:

     one-electron contribution =    -703.03581925 Ry
     hartree contribution      =     350.87153148 Ry
     xc contribution           =     -30.74439184 Ry
     ewald contribution        =     268.46058250 Ry

     total energy              =    -114.44854684 Ry
     Harris-Foulkes estimate   =    -114.44855710 Ry
     estimated scf accuracy    <       0.00000361 Ry

     total magnetization       =     1.00 Bohr mag/cell
     absolute magnetization    =     1.58 Bohr mag/cell

     iteration # 34     ecut=   120.00 Ry     beta=0.70
     CG style diagonalization
     ethr =  3.87E-09,  avg # of iterations =  3.9
 
     Magnetic moment per site:
     atom:    1    charge:    0.8448    magn:   -0.0042    constr:    0.0000
     atom:    2    charge:    0.8453    magn:   -0.0041    constr:    0.0000
     atom:    3    charge:    0.8461    magn:   -0.0106    constr:    0.0000
     atom:    4    charge:    0.8440    magn:   -0.0099    constr:    0.0000
     atom:    5    charge:    0.8444    magn:   -0.0099    constr:    0.0000
     atom:    6    charge:    0.8461    magn:   -0.0105    constr:    0.0000
     atom:    7    charge:    0.4985    magn:    0.0002    constr:    0.0000
     atom:    8    charge:    0.4980    magn:    0.0002    constr:    0.0000
     atom:    9    charge:    0.4964    magn:    0.0004    constr:    0.0000
     atom:   10    charge:    0.4966    magn:    0.0004    constr:    0.0000
     atom:   11    charge:    0.4961    magn:    0.0004    constr:    0.0000
     atom:   12    charge:    0.4964    magn:    0.0004    constr:    0.0000
     atom:   13    charge:    5.8051    magn:    1.1372    constr:    0.0000

     total cpu time spent up to now is      339.6 secs

     The total energy is the sum of the following terms:

     one-electron contribution =    -703.03579254 Ry
     hartree contribution      =     350.87178335 Ry
     xc contribution           =     -30.74453986 Ry
     ewald contribution        =     268.46058250 Ry

     total energy              =    -114.44855873 Ry
     Harris-Foulkes estimate   =    -114.44855898 Ry
     estimated scf accuracy    <       0.00000044 Ry

     total magnetization       =     1.00 Bohr mag/cell
     absolute magnetization    =     1.58 Bohr mag/cell

     iteration # 35     ecut=   120.00 Ry     beta=0.70
     CG style diagonalization
     ethr =  1.18E-09,  avg # of iterations =  3.3
 
     Magnetic moment per site:
     atom:    1    charge:    0.8448    magn:   -0.0042    constr:    0.0000
     atom:    2    charge:    0.8453    magn:   -0.0041    constr:    0.0000
     atom:    3    charge:    0.8461    magn:   -0.0105    constr:    0.0000
     atom:    4    charge:    0.8440    magn:   -0.0099    constr:    0.0000
     atom:    5    charge:    0.8445    magn:   -0.0099    constr:    0.0000
     atom:    6    charge:    0.8461    magn:   -0.0105    constr:    0.0000
     atom:    7    charge:    0.4985    magn:    0.0002    constr:    0.0000
     atom:    8    charge:    0.4980    magn:    0.0002    constr:    0.0000
     atom:    9    charge:    0.4964    magn:    0.0004    constr:    0.0000
     atom:   10    charge:    0.4966    magn:    0.0004    constr:    0.0000
     atom:   11    charge:    0.4961    magn:    0.0004    constr:    0.0000
     atom:   12    charge:    0.4964    magn:    0.0004    constr:    0.0000
     atom:   13    charge:    5.8049    magn:    1.1373    constr:    0.0000

     total cpu time spent up to now is      346.7 secs

     The total energy is the sum of the following terms:

     one-electron contribution =    -703.03653633 Ry
     hartree contribution      =     350.87053208 Ry
     xc contribution           =     -30.74408066 Ry
     ewald contribution        =     268.46058250 Ry

     total energy              =    -114.44855266 Ry
     Harris-Foulkes estimate   =    -114.44855889 Ry
     estimated scf accuracy    <       0.00000081 Ry

     total magnetization       =     1.00 Bohr mag/cell
     absolute magnetization    =     1.58 Bohr mag/cell

     iteration # 36     ecut=   120.00 Ry     beta=0.70
     CG style diagonalization
     ethr =  1.18E-09,  avg # of iterations =  4.0
 
     Magnetic moment per site:
     atom:    1    charge:    0.8448    magn:   -0.0042    constr:    0.0000
     atom:    2    charge:    0.8453    magn:   -0.0041    constr:    0.0000
     atom:    3    charge:    0.8461    magn:   -0.0106    constr:    0.0000
     atom:    4    charge:    0.8440    magn:   -0.0100    constr:    0.0000
     atom:    5    charge:    0.8445    magn:   -0.0099    constr:    0.0000
     atom:    6    charge:    0.8461    magn:   -0.0106    constr:    0.0000
     atom:    7    charge:    0.4985    magn:    0.0002    constr:    0.0000
     atom:    8    charge:    0.4980    magn:    0.0002    constr:    0.0000
     atom:    9    charge:    0.4964    magn:    0.0004    constr:    0.0000
     atom:   10    charge:    0.4966    magn:    0.0004    constr:    0.0000
     atom:   11    charge:    0.4961    magn:    0.0004    constr:    0.0000
     atom:   12    charge:    0.4964    magn:    0.0004    constr:    0.0000
     atom:   13    charge:    5.8049    magn:    1.1372    constr:    0.0000

     total cpu time spent up to now is      355.1 secs

     The total energy is the sum of the following terms:

     one-electron contribution =    -703.03349045 Ry
     hartree contribution      =     350.87001232 Ry
     xc contribution           =     -30.74411162 Ry
     ewald contribution        =     268.46058250 Ry

     total energy              =    -114.44855893 Ry
     Harris-Foulkes estimate   =    -114.44855965 Ry
     estimated scf accuracy    <       0.00000042 Ry

     total magnetization       =     1.00 Bohr mag/cell
     absolute magnetization    =     1.58 Bohr mag/cell

     iteration # 37     ecut=   120.00 Ry     beta=0.70
     CG style diagonalization
     ethr =  1.12E-09,  avg # of iterations =  3.4
 
     Magnetic moment per site:
     atom:    1    charge:    0.8448    magn:   -0.0041    constr:    0.0000
     atom:    2    charge:    0.8453    magn:   -0.0040    constr:    0.0000
     atom:    3    charge:    0.8461    magn:   -0.0106    constr:    0.0000
     atom:    4    charge:    0.8440    magn:   -0.0100    constr:    0.0000
     atom:    5    charge:    0.8444    magn:   -0.0098    constr:    0.0000
     atom:    6    charge:    0.8461    magn:   -0.0106    constr:    0.0000
     atom:    7    charge:    0.4985    magn:    0.0002    constr:    0.0000
     atom:    8    charge:    0.4980    magn:    0.0002    constr:    0.0000
     atom:    9    charge:    0.4964    magn:    0.0004    constr:    0.0000
     atom:   10    charge:    0.4966    magn:    0.0004    constr:    0.0000
     atom:   11    charge:    0.4961    magn:    0.0004    constr:    0.0000
     atom:   12    charge:    0.4964    magn:    0.0004    constr:    0.0000
     atom:   13    charge:    5.8049    magn:    1.1372    constr:    0.0000

     total cpu time spent up to now is      362.3 secs

     The total energy is the sum of the following terms:

     one-electron contribution =    -703.03510673 Ry
     hartree contribution      =     350.87015055 Ry
     xc contribution           =     -30.74420326 Ry
     ewald contribution        =     268.46058250 Ry

     total energy              =    -114.44855937 Ry
     Harris-Foulkes estimate   =    -114.44856006 Ry
     estimated scf accuracy    <       0.00000016 Ry

     total magnetization       =     1.00 Bohr mag/cell
     absolute magnetization    =     1.58 Bohr mag/cell

     iteration # 38     ecut=   120.00 Ry     beta=0.70
     CG style diagonalization
     ethr =  4.33E-10,  avg # of iterations =  3.8
 
     Magnetic moment per site:
     atom:    1    charge:    0.8448    magn:   -0.0041    constr:    0.0000
     atom:    2    charge:    0.8453    magn:   -0.0041    constr:    0.0000
     atom:    3    charge:    0.8461    magn:   -0.0106    constr:    0.0000
     atom:    4    charge:    0.8440    magn:   -0.0100    constr:    0.0000
     atom:    5    charge:    0.8444    magn:   -0.0098    constr:    0.0000
     atom:    6    charge:    0.8461    magn:   -0.0106    constr:    0.0000
     atom:    7    charge:    0.4985    magn:    0.0002    constr:    0.0000
     atom:    8    charge:    0.4980    magn:    0.0002    constr:    0.0000
     atom:    9    charge:    0.4964    magn:    0.0004    constr:    0.0000
     atom:   10    charge:    0.4966    magn:    0.0004    constr:    0.0000
     atom:   11    charge:    0.4961    magn:    0.0004    constr:    0.0000
     atom:   12    charge:    0.4964    magn:    0.0004    constr:    0.0000
     atom:   13    charge:    5.8049    magn:    1.1372    constr:    0.0000

     total cpu time spent up to now is      370.4 secs

     The total energy is the sum of the following terms:

     one-electron contribution =    -703.03499651 Ry
     hartree contribution      =     350.87008752 Ry
     xc contribution           =     -30.74422514 Ry
     ewald contribution        =     268.46058250 Ry

     total energy              =    -114.44856003 Ry
     Harris-Foulkes estimate   =    -114.44856055 Ry
     estimated scf accuracy    <       0.00000004 Ry

     total magnetization       =     1.00 Bohr mag/cell
     absolute magnetization    =     1.58 Bohr mag/cell

     iteration # 39     ecut=   120.00 Ry     beta=0.70
     CG style diagonalization
     ethr =  1.20E-10,  avg # of iterations =  4.4
 
     Magnetic moment per site:
     atom:    1    charge:    0.8448    magn:   -0.0041    constr:    0.0000
     atom:    2    charge:    0.8453    magn:   -0.0041    constr:    0.0000
     atom:    3    charge:    0.8461    magn:   -0.0106    constr:    0.0000
     atom:    4    charge:    0.8440    magn:   -0.0100    constr:    0.0000
     atom:    5    charge:    0.8444    magn:   -0.0098    constr:    0.0000
     atom:    6    charge:    0.8461    magn:   -0.0106    constr:    0.0000
     atom:    7    charge:    0.4985    magn:    0.0002    constr:    0.0000
     atom:    8    charge:    0.4980    magn:    0.0002    constr:    0.0000
     atom:    9    charge:    0.4964    magn:    0.0004    constr:    0.0000
[...]

     total magnetization       =     1.00 Bohr mag/cell
     absolute magnetization    =     1.58 Bohr mag/cell

     iteration # 10     ecut=   120.00 Ry     beta=0.70
     CG style diagonalization
     ethr =  1.46E-12,  avg # of iterations =  3.4
 
     Magnetic moment per site:
     atom:    1    charge:    0.8448    magn:   -0.0041    constr:    0.0000
     atom:    2    charge:    0.8453    magn:   -0.0041    constr:    0.0000
     atom:    3    charge:    0.8461    magn:   -0.0105    constr:    0.0000
     atom:    4    charge:    0.8440    magn:   -0.0099    constr:    0.0000
     atom:    5    charge:    0.8445    magn:   -0.0099    constr:    0.0000
     atom:    6    charge:    0.8461    magn:   -0.0105    constr:    0.0000
     atom:    7    charge:    0.4985    magn:    0.0002    constr:    0.0000
     atom:    8    charge:    0.4980    magn:    0.0002    constr:    0.0000
     atom:    9    charge:    0.4964    magn:    0.0004    constr:    0.0000
     atom:   10    charge:    0.4966    magn:    0.0004    constr:    0.0000
     atom:   11    charge:    0.4961    magn:    0.0004    constr:    0.0000
     atom:   12    charge:    0.4964    magn:    0.0004    constr:    0.0000
     atom:   13    charge:    5.8050    magn:    1.1372    constr:    0.0000

     total cpu time spent up to now is      779.6 secs

     The total energy is the sum of the following terms:

     one-electron contribution =    -703.03532415 Ry
     hartree contribution      =     350.87031601 Ry
     xc contribution           =     -30.74420522 Ry
     ewald contribution        =     268.46058250 Ry

     total energy              =    -114.44859163 Ry
     Harris-Foulkes estimate   =    -114.44859163 Ry
     estimated scf accuracy    <          4.1E-10 Ry

     total magnetization       =     1.00 Bohr mag/cell
     absolute magnetization    =     1.58 Bohr mag/cell

     iteration # 11     ecut=   120.00 Ry     beta=0.70
     CG style diagonalization
     ethr =  1.12E-12,  avg # of iterations =  3.1
 
     Magnetic moment per site:
     atom:    1    charge:    0.8448    magn:   -0.0041    constr:    0.0000
     atom:    2    charge:    0.8453    magn:   -0.0041    constr:    0.0000
     atom:    3    charge:    0.8461    magn:   -0.0105    constr:    0.0000
     atom:    4    charge:    0.8440    magn:   -0.0099    constr:    0.0000
     atom:    5    charge:    0.8445    magn:   -0.0099    constr:    0.0000
     atom:    6    charge:    0.8461    magn:   -0.0105    constr:    0.0000
     atom:    7    charge:    0.4985    magn:    0.0002    constr:    0.0000
     atom:    8    charge:    0.4980    magn:    0.0002    constr:    0.0000
     atom:    9    charge:    0.4964    magn:    0.0004    constr:    0.0000
     atom:   10    charge:    0.4966    magn:    0.0004    constr:    0.0000
     atom:   11    charge:    0.4961    magn:    0.0004    constr:    0.0000
     atom:   12    charge:    0.4964    magn:    0.0004    constr:    0.0000
     atom:   13    charge:    5.8050    magn:    1.1372    constr:    0.0000

     total cpu time spent up to now is      786.3 secs

     The total energy is the sum of the following terms:

     one-electron contribution =    -703.03533142 Ry
     hartree contribution      =     350.87032158 Ry
     xc contribution           =     -30.74420578 Ry
     ewald contribution        =     268.46058250 Ry

     total energy              =    -114.44859163 Ry
     Harris-Foulkes estimate   =    -114.44859163 Ry
     estimated scf accuracy    <          3.8E-11 Ry

     total magnetization       =     1.00 Bohr mag/cell
     absolute magnetization    =     1.58 Bohr mag/cell

     iteration # 12     ecut=   120.00 Ry     beta=0.70
     CG style diagonalization
     ethr =  1.02E-13,  avg # of iterations =  4.3
 
     Magnetic moment per site:
     atom:    1    charge:    0.8448    magn:   -0.0041    constr:    0.0000
     atom:    2    charge:    0.8453    magn:   -0.0041    constr:    0.0000
     atom:    3    charge:    0.8461    magn:   -0.0105    constr:    0.0000
     atom:    4    charge:    0.8440    magn:   -0.0099    constr:    0.0000
     atom:    5    charge:    0.8445    magn:   -0.0099    constr:    0.0000
     atom:    6    charge:    0.8461    magn:   -0.0105    constr:    0.0000
     atom:    7    charge:    0.4985    magn:    0.0002    constr:    0.0000
     atom:    8    charge:    0.4980    magn:    0.0002    constr:    0.0000
     atom:    9    charge:    0.4964    magn:    0.0004    constr:    0.0000
     atom:   10    charge:    0.4966    magn:    0.0004    constr:    0.0000
     atom:   11    charge:    0.4961    magn:    0.0004    constr:    0.0000
     atom:   12    charge:    0.4964    magn:    0.0004    constr:    0.0000
     atom:   13    charge:    5.8050    magn:    1.1372    constr:    0.0000

     total cpu time spent up to now is      795.4 secs

     The total energy is the sum of the following terms:

     one-electron contribution =    -703.03534217 Ry
     hartree contribution      =     350.87032681 Ry
     xc contribution           =     -30.74420580 Ry
     ewald contribution        =     268.46058250 Ry

     total energy              =    -114.44859163 Ry
     Harris-Foulkes estimate   =    -114.44859163 Ry
     estimated scf accuracy    <          4.0E-11 Ry

     total magnetization       =     1.00 Bohr mag/cell
     absolute magnetization    =     1.58 Bohr mag/cell

     iteration # 13     ecut=   120.00 Ry     beta=0.70
     CG style diagonalization
     ethr =  1.02E-13,  avg # of iterations =  3.6
 
     Magnetic moment per site:
     atom:    1    charge:    0.8448    magn:   -0.0041    constr:    0.0000
     atom:    2    charge:    0.8453    magn:   -0.0041    constr:    0.0000
     atom:    3    charge:    0.8461    magn:   -0.0105    constr:    0.0000
     atom:    4    charge:    0.8440    magn:   -0.0099    constr:    0.0000
     atom:    5    charge:    0.8445    magn:   -0.0099    constr:    0.0000
     atom:    6    charge:    0.8461    magn:   -0.0105    constr:    0.0000
     atom:    7    charge:    0.4985    magn:    0.0002    constr:    0.0000
     atom:    8    charge:    0.4980    magn:    0.0002    constr:    0.0000
     atom:    9    charge:    0.4964    magn:    0.0004    constr:    0.0000
     atom:   10    charge:    0.4966    magn:    0.0004    constr:    0.0000
     atom:   11    charge:    0.4961    magn:    0.0004    constr:    0.0000
     atom:   12    charge:    0.4964    magn:    0.0004    constr:    0.0000
     atom:   13    charge:    5.8050    magn:    1.1372    constr:    0.0000

     total cpu time spent up to now is      803.2 secs

     The total energy is the sum of the following terms:

     one-electron contribution =    -703.03530942 Ry
     hartree contribution      =     350.87032831 Ry
     xc contribution           =     -30.74420599 Ry
     ewald contribution        =     268.46058250 Ry

     total energy              =    -114.44859163 Ry
     Harris-Foulkes estimate   =    -114.44859163 Ry
     estimated scf accuracy    <          7.3E-12 Ry

     total magnetization       =     1.00 Bohr mag/cell
     absolute magnetization    =     1.58 Bohr mag/cell

     iteration # 14     ecut=   120.00 Ry     beta=0.70
     CG style diagonalization
     ethr =  1.00E-13,  avg # of iterations =  3.5
 
     Magnetic moment per site:
     atom:    1    charge:    0.8448    magn:   -0.0041    constr:    0.0000
     atom:    2    charge:    0.8453    magn:   -0.0041    constr:    0.0000
     atom:    3    charge:    0.8461    magn:   -0.0105    constr:    0.0000
     atom:    4    charge:    0.8440    magn:   -0.0099    constr:    0.0000
     atom:    5    charge:    0.8445    magn:   -0.0099    constr:    0.0000
     atom:    6    charge:    0.8461    magn:   -0.0105    constr:    0.0000
     atom:    7    charge:    0.4985    magn:    0.0002    constr:    0.0000
     atom:    8    charge:    0.4980    magn:    0.0002    constr:    0.0000
     atom:    9    charge:    0.4964    magn:    0.0004    constr:    0.0000
     atom:   10    charge:    0.4966    magn:    0.0004    constr:    0.0000
     atom:   11    charge:    0.4961    magn:    0.0004    constr:    0.0000
     atom:   12    charge:    0.4964    magn:    0.0004    constr:    0.0000
     atom:   13    charge:    5.8050    magn:    1.1372    constr:    0.0000

     total cpu time spent up to now is      810.7 secs

     The total energy is the sum of the following terms:

     one-electron contribution =    -703.03529997 Ry
     hartree contribution      =     350.87032519 Ry
     xc contribution           =     -30.74420594 Ry
     ewald contribution        =     268.46058250 Ry

     total energy              =    -114.44859163 Ry
     Harris-Foulkes estimate   =    -114.44859163 Ry
     estimated scf accuracy    <          4.0E-12 Ry

     total magnetization       =     1.00 Bohr mag/cell
     absolute magnetization    =     1.58 Bohr mag/cell

     iteration # 15     ecut=   120.00 Ry     beta=0.70
     CG style diagonalization
     ethr =  1.00E-13,  avg # of iterations =  3.6
 
     Magnetic moment per site:
     atom:    1    charge:    0.8448    magn:   -0.0041    constr:    0.0000
     atom:    2    charge:    0.8453    magn:   -0.0041    constr:    0.0000
     atom:    3    charge:    0.8461    magn:   -0.0105    constr:    0.0000
     atom:    4    charge:    0.8440    magn:   -0.0099    constr:    0.0000
     atom:    5    charge:    0.8445    magn:   -0.0099    constr:    0.0000
     atom:    6    charge:    0.8461    magn:   -0.0105    constr:    0.0000
     atom:    7    charge:    0.4985    magn:    0.0002    constr:    0.0000
     atom:    8    charge:    0.4980    magn:    0.0002    constr:    0.0000
     atom:    9    charge:    0.4964    magn:    0.0004    constr:    0.0000
     atom:   10    charge:    0.4966    magn:    0.0004    constr:    0.0000
     atom:   11    charge:    0.4961    magn:    0.0004    constr:    0.0000
     atom:   12    charge:    0.4964    magn:    0.0004    constr:    0.0000
     atom:   13    charge:    5.8050    magn:    1.1372    constr:    0.0000

     total cpu time spent up to now is      818.4 secs

     The total energy is the sum of the following terms:

     one-electron contribution =    -703.03529723 Ry
     hartree contribution      =     350.87032422 Ry
     xc contribution           =     -30.74420605 Ry
     ewald contribution        =     268.46058250 Ry

     total energy              =    -114.44859163 Ry
     Harris-Foulkes estimate   =    -114.44859163 Ry
     estimated scf accuracy    <          1.9E-12 Ry

     total magnetization       =     1.00 Bohr mag/cell
     absolute magnetization    =     1.58 Bohr mag/cell

     iteration # 16     ecut=   120.00 Ry     beta=0.70
     CG style diagonalization
     ethr =  1.00E-13,  avg # of iterations =  3.5
 
     Magnetic moment per site:
     atom:    1    charge:    0.8448    magn:   -0.0041    constr:    0.0000
     atom:    2    charge:    0.8453    magn:   -0.0041    constr:    0.0000
     atom:    3    charge:    0.8461    magn:   -0.0105    constr:    0.0000
     atom:    4    charge:    0.8440    magn:   -0.0099    constr:    0.0000
     atom:    5    charge:    0.8445    magn:   -0.0099    constr:    0.0000
     atom:    6    charge:    0.8461    magn:   -0.0105    constr:    0.0000
     atom:    7    charge:    0.4985    magn:    0.0002    constr:    0.0000
     atom:    8    charge:    0.4980    magn:    0.0002    constr:    0.0000
     atom:    9    charge:    0.4964    magn:    0.0004    constr:    0.0000
     atom:   10    charge:    0.4966    magn:    0.0004    constr:    0.0000
     atom:   11    charge:    0.4961    magn:    0.0004    constr:    0.0000
     atom:   12    charge:    0.4964    magn:    0.0004    constr:    0.0000
     atom:   13    charge:    5.8050    magn:    1.1372    constr:    0.0000

     total cpu time spent up to now is      825.9 secs

     The total energy is the sum of the following terms:

     one-electron contribution =    -703.03529151 Ry
     hartree contribution      =     350.87032234 Ry
     xc contribution           =     -30.74420614 Ry
     ewald contribution        =     268.46058250 Ry

     total energy              =    -114.44859163 Ry
     Harris-Foulkes estimate   =    -114.44859163 Ry
     estimated scf accuracy    <          1.3E-12 Ry

     total magnetization       =     1.00 Bohr mag/cell
     absolute magnetization    =     1.58 Bohr mag/cell

     iteration # 17     ecut=   120.00 Ry     beta=0.70
     CG style diagonalization
     ethr =  1.00E-13,  avg # of iterations =  3.6
 
     Magnetic moment per site:
     atom:    1    charge:    0.8448    magn:   -0.0041    constr:    0.0000
     atom:    2    charge:    0.8453    magn:   -0.0041    constr:    0.0000
     atom:    3    charge:    0.8461    magn:   -0.0105    constr:    0.0000
     atom:    4    charge:    0.8440    magn:   -0.0099    constr:    0.0000
     atom:    5    charge:    0.8445    magn:   -0.0099    constr:    0.0000
     atom:    6    charge:    0.8461    magn:   -0.0105    constr:    0.0000
     atom:    7    charge:    0.4985    magn:    0.0002    constr:    0.0000
     atom:    8    charge:    0.4980    magn:    0.0002    constr:    0.0000
     atom:    9    charge:    0.4964    magn:    0.0004    constr:    0.0000
     atom:   10    charge:    0.4966    magn:    0.0004    constr:    0.0000
     atom:   11    charge:    0.4961    magn:    0.0004    constr:    0.0000
     atom:   12    charge:    0.4964    magn:    0.0004    constr:    0.0000
     atom:   13    charge:    5.8050    magn:    1.1372    constr:    0.0000

     total cpu time spent up to now is      833.5 secs

     End of self-consistent calculation

 ------ SPIN UP ------------


          k = 0.0000 0.0000 0.0000 (797775 PWs)   bands (ev):

   -25.3110 -22.5723 -22.5251 -19.5551 -18.9967 -18.9898 -17.1622 -15.4933
   -15.0422 -14.5075 -14.4715 -13.2167 -12.4918 -12.4907 -10.5399 -10.4829
    -8.0407  -6.7231  -6.7062  -5.3987  -5.3599  -4.6378  -3.9581  -3.9528
    -3.3030  -3.2932  -3.0419  -2.3285  -2.2348  -2.0655  -2.0496  -1.7757
    -1.7170  -0.7608  -0.7198  -0.6442  -0.6359  -0.3593  -0.3129  -0.1861

     occupation numbers 
     1.0000   1.0000   1.0000   1.0000   1.0000   1.0000   1.0000   1.0000
     1.0000   1.0000   1.0000   1.0000   1.0000   1.0000   1.0000   1.0000
     1.0000   1.0000   1.0000   0.0000   0.0000   0.0000   0.0000   0.0000
     0.0000   0.0000   0.0000   0.0000   0.0000   0.0000   0.0000   0.0000
     0.0000   0.0000   0.0000   0.0000   0.0000   0.0000   0.0000   0.0000

 ------ SPIN DOWN ----------


          k = 0.0000 0.0000 0.0000 (797775 PWs)   bands (ev):

   -25.3528 -22.6163 -22.5812 -19.0388 -19.0375 -17.9916 -17.1778 -15.5297
   -15.0615 -14.5180 -14.4856 -13.3241 -12.5075 -12.5048 -10.6542 -10.6320
    -6.1144  -6.0911  -5.4673  -5.4651  -5.3152  -4.6553  -3.9813  -3.9666
    -3.3290  -3.3175  -3.0724  -2.3312  -2.2617  -2.1053  -2.0863  -1.8629
    -1.8062  -0.7943  -0.7574  -0.6649  -0.6583  -0.4064  -0.3251  -0.2023

     occupation numbers 
     1.0000   1.0000   1.0000   1.0000   1.0000   1.0000   1.0000   1.0000
     1.0000   1.0000   1.0000   1.0000   1.0000   1.0000   1.0000   1.0000
     1.0000   1.0000   0.0000   0.0000   0.0000   0.0000   0.0000   0.0000
     0.0000   0.0000   0.0000   0.0000   0.0000   0.0000   0.0000   0.0000
     0.0000   0.0000   0.0000   0.0000   0.0000   0.0000   0.0000   0.0000

     highest occupied, lowest unoccupied level (ev):    -6.0911   -5.4673

     The total energy is the sum of the following terms:

     one-electron contribution =    -703.03528849 Ry
     hartree contribution      =     350.87032052 Ry
     xc contribution           =     -30.74420616 Ry
     ewald contribution        =     268.46058250 Ry

!    total energy              =    -114.44859163 Ry
     Harris-Foulkes estimate   =    -114.44859163 Ry
     estimated scf accuracy    <          3.3E-13 Ry

     The total energy is the sum of the following terms:

     one-electron contribution =    -703.03528849 Ry
     hartree contribution      =     350.87032052 Ry
     xc contribution           =     -30.74420616 Ry
     ewald contribution        =     268.46058250 Ry

     total magnetization       =     1.00 Bohr mag/cell
     absolute magnetization    =     1.58 Bohr mag/cell

     convergence has been achieved in  17 iterations
 
     Using Hirshfeld
        Amplitude [Ry a.u.] : -3.8911E-01
        Acceptor Fragment start :          13
        Acceptor Fragment end   :          13
        Donor Fragment start :           1
        Donor Fragment end   :          12
 
 
     Using Hirshfeld
        Amplitude [Ry a.u.] : -3.8911E-01
        Acceptor Fragment start :          13
        Acceptor Fragment end   :          13
        Donor Fragment start :           1
        Donor Fragment end   :          12
 
     E field correction              :  0.9338569482334504E+01 Ry    
 
     Donor charge                    :     -0.3487030715672681 e     
     Acceptor charge                 :      0.6512970794618500 e     
     Difference of charges           :     -1.0000001510291163 e     

     Writing output data file right.save
 
     init_run     :     49.91s CPU     49.91s WALL (       1 calls)
     electrons    :    762.46s CPU    762.46s WALL (       3 calls)
     update_pot   :      1.94s CPU      1.94s WALL (       2 calls)

     Called by init_run:
     wfcinit      :      8.00s CPU      8.00s WALL (       1 calls)
     potinit      :      2.40s CPU      2.40s WALL (       1 calls)

     Called by electrons:
     c_bands      :    573.73s CPU    573.73s WALL (      82 calls)
     sum_band     :     40.67s CPU     40.67s WALL (      82 calls)
     v_of_rho     :     80.51s CPU     80.51s WALL (      85 calls)
     v_h          :      1.50s CPU      1.50s WALL (      85 calls)
     v_xc         :     79.01s CPU     79.01s WALL (      85 calls)
     mix_rho      :      5.11s CPU      5.11s WALL (      82 calls)

     Called by c_bands:
     init_us_2    :      2.25s CPU      2.25s WALL (     330 calls)
     rcgdiagg     :    480.83s CPU    480.83s WALL (     168 calls)
     wfcrot       :     93.06s CPU     93.06s WALL (     164 calls)

     Called by sum_band:

     Called by *cgdiagg:
     h_psi        :    502.99s CPU    502.99s WALL (   21812 calls)
     rdiaghg      :     11.64s CPU     11.64s WALL (     164 calls)
     rdiaghg:chol :      0.92s CPU      0.92s WALL (     164 calls)
     rdiaghg:inve :      0.16s CPU      0.16s WALL (     164 calls)
     rdiaghg:para :      0.88s CPU      0.88s WALL (     328 calls)

     Called by h_psi:
     h_psi:vloc   :    435.09s CPU    435.09s WALL (   21812 calls)
     h_psi:vnl    :     67.27s CPU     67.27s WALL (   21812 calls)
     add_vuspsi   :     41.29s CPU     41.31s WALL (   21812 calls)

     General routines
     calbec       :     33.55s CPU     33.59s WALL (   43460 calls)
     fft          :     47.44s CPU     47.44s WALL (    3647 calls)
     fftw         :    413.00s CPU    413.02s WALL (   53472 calls)
 
     Parallel routines
     fft_scatter  :    166.17s CPU    166.26s WALL (   57119 calls)
 
     PWSCF        : 15m14.84s CPU    15m14.84s WALL

 
   This run was terminated on:  15:14:49  24Aug2015            

=------------------------------------------------------------------------------=
   JOB DONE.
=------------------------------------------------------------------------------=
2015-08-24 15:15:07.091 (INFO ) [0xfff85c9c410] CET-20400-31731-128:1297538:ibm.runjob.client.Job: exited with status 0
2015-08-24 15:15:07.092 (INFO ) [0xfff85c9c410] tatu.runjob.client: task exited with status 0
2015-08-24 15:15:07.092 (INFO ) [0xfffaae234e0] 14848:tatu.runjob.monitor: monitor terminating
2015-08-24 15:15:07.097 (INFO ) [0xfff85c9c410] tatu.runjob.client: monitor completed
