2015-08-20 13:29:10.351 (INFO ) [0xfffb0c5c410] ibm.runjob.AbstractOptions: using properties file /bgsys/local/etc/bg.properties
2015-08-20 13:29:10.357 (INFO ) [0xfffb0c5c410] ibm.runjob.AbstractOptions: max open file descriptors: 65536
2015-08-20 13:29:10.357 (INFO ) [0xfffb0c5c410] ibm.runjob.AbstractOptions: core file limit: 18446744073709551615
2015-08-20 13:29:10.358 (INFO ) [0xfffb0c5c410] 22775:tatu.runjob.client: scheduler job id is 565054
2015-08-20 13:29:10.363 (INFO ) [0xfff95f034e0] 22775:tatu.runjob.monitor: monitor started
2015-08-20 13:29:14.246 (INFO ) [0xfff95f034e0] 22775:tatu.runjob.monitor: task record 1233331 created
2015-08-20 13:29:14.247 (INFO ) [0xfffb0c5c410] CET-20400-31731-128:22775:ibm.runjob.client.options.Parser: set local socket to runjob_mux from properties file
2015-08-20 13:29:17.064 (INFO ) [0xfffb0c5c410] CET-20400-31731-128:1292123:ibm.runjob.client.Job: job 1292123 started

     Program PWSCF v.5.1.1 starts on 20Aug2015 at 13:29:17 

     This program is part of the open-source Quantum ESPRESSO suite
     for quantum simulation of materials; please cite
         "P. Giannozzi et al., J. Phys.:Condens. Matter 21 395502 (2009);
          URL http://www.quantum-espresso.org", 
     in publications or presentations arising from this work. More details at
     http://www.quantum-espresso.org/quote

     Parallel version (MPI & OpenMP), running on    1024 processor cores
     Number of MPI processes:              1024
     Threads/MPI process:                     1
     R & G space division:  proc/nbgrp/npool/nimage =    1024
     Waiting for input...
     Reading input from standard input

     Current dimensions of program PWSCF are:
     Max number of different atomic species (ntypx) = 10
     Max number of k-points (npk) =  40000
     Max angular momentum in pseudopotentials (lmaxx) =  3
               file C.pbe-mt_fhi.UPF: wavefunction(s)  4f renormalized
               file H.pbe-mt_fhi.UPF: wavefunction(s)  2p 4f renormalized
               file Cl.pbe-mt_fhi.UPF: wavefunction(s)  4f renormalized

     gamma-point specific algorithms are used
     Message from routine setup:
     the system is metallic, specify occupations

     Subspace diagonalization in iterative solution of the eigenvalue problem:
     scalapack distributed-memory algorithm (size of sub-group: 22* 22 procs)

 
     Parallelization info
     --------------------
     sticks:   dense  smooth     PW     G-vecs:    dense   smooth      PW
     Min          82      82     20                18258    18258    2268
     Max          84      84     22                18316    18316    2314
     Sum       85225   85225  21329             18723953 18723953 2340509
     Tot       42613   42613  10665
 
     Generating pointlists ...
     new r_m :   0.0179 (alat units)  0.8450 (a.u.) for type    1
     new r_m :   0.0179 (alat units)  0.8450 (a.u.) for type    2
     new r_m :   0.0508 (alat units)  2.4011 (a.u.) for type    3
2015-08-20 13:29:23.907 (INFO ) [0xfff95f034e0] 22775:tatu.runjob.monitor: tracklib completed


     bravais-lattice index     =            1
     lattice parameter (alat)  =      47.2432  a.u.
     unit-cell volume          =  105442.7279 (a.u.)^3
     number of atoms/cell      =           13
     number of atomic types    =            3
     number of electrons       =        37.00 (up:  19.00, down:  18.00)
     number of Kohn-Sham states=           40
     kinetic-energy cutoff     =     120.0000  Ry
     charge density cutoff     =     480.0000  Ry
     convergence threshold     =      1.0E-07
     mixing beta               =       0.7000
     number of iterations used =            8  plain     mixing
     Exchange-correlation      = PBE ( 1  4  3  4 0 0)
     Assuming isolated system, Martyna-Tuckerman method


     celldm(1)=  47.243153  celldm(2)=   0.000000  celldm(3)=   0.000000
     celldm(4)=   0.000000  celldm(5)=   0.000000  celldm(6)=   0.000000

     crystal axes: (cart. coord. in units of alat)
               a(1) = (   1.000000   0.000000   0.000000 )  
               a(2) = (   0.000000   1.000000   0.000000 )  
               a(3) = (   0.000000   0.000000   1.000000 )  

     reciprocal axes: (cart. coord. in units 2 pi/alat)
               b(1) = (  1.000000  0.000000  0.000000 )  
               b(2) = (  0.000000  1.000000  0.000000 )  
               b(3) = (  0.000000  0.000000  1.000000 )  


     PseudoPot. # 1 for  C read from file:
     ./C.pbe-mt_fhi.UPF
     MD5 check sum: 058ca341f9d6d5327d9962fd88a91b65
     Pseudo is Norm-conserving, Zval =  4.0
     Generated using FHI98PP, converted with fhi2upf.x v.5.0.2
     Using radial grid of  461 points,  3 beta functions with: 
                l(1) =   0
                l(2) =   1
                l(3) =   3

     PseudoPot. # 2 for  H read from file:
     ./H.pbe-mt_fhi.UPF
     MD5 check sum: a19bd5488733b3d98581df861506e80d
     Pseudo is Norm-conserving, Zval =  1.0
     Generated using FHI98PP, converted with fhi2upf.x v.5.0.2
     Using radial grid of  387 points,  3 beta functions with: 
                l(1) =   0
                l(2) =   1
                l(3) =   3

     PseudoPot. # 3 for Cl read from file:
     ./Cl.pbe-mt_fhi.UPF
     MD5 check sum: 2690b95bbfe21454a1a3af22474751ef
     Pseudo is Norm-conserving, Zval =  7.0
     Generated using FHI98PP, converted with fhi2upf.x v.5.0.2
     Using radial grid of  503 points,  3 beta functions with: 
                l(1) =   0
                l(2) =   1
                l(3) =   3

     atomic species   valence    mass     pseudopotential
        C              4.00    12.01070      C( 1.00)
        H              1.00     1.00794      H( 1.00)
        Cl             7.00     1.00000     Cl( 1.00)

     Starting magnetic structure 
     atomic species   magnetization
        C            0.000
        H            0.000
        Cl           0.000

     No symmetry found


                                    s                        frac. trans.

      isym =  1     identity                                     

 cryst.   s( 1) = (     1          0          0      )
                  (     0          1          0      )
                  (     0          0          1      )

 cart.    s( 1) = (  1.0000000  0.0000000  0.0000000 )
                  (  0.0000000  1.0000000  0.0000000 )
                  (  0.0000000  0.0000000  1.0000000 )


     point group C_1 (1)    
     there are  1 classes
     the character table:

       E    
A      1.00

     the symmetry operations in each class:
     E        1

   Cartesian axes

     site n.     atom                  positions (alat units)
         1           C   tau(   1) = (   0.0000000   0.0558800   0.0000000  )
         2           C   tau(   2) = (   0.0483920   0.0279400   0.0000000  )
         3           C   tau(   3) = (   0.0483920  -0.0279400   0.0000000  )
         4           C   tau(   4) = (   0.0000000  -0.0558800   0.0000000  )
         5           C   tau(   5) = (  -0.0483920  -0.0279400   0.0000000  )
         6           C   tau(   6) = (  -0.0483920   0.0279400   0.0000000  )
         7           H   tau(   7) = (   0.0000000   0.0992400   0.0000000  )
         8           H   tau(   8) = (   0.0859440   0.0496200   0.0000000  )
         9           H   tau(   9) = (   0.0859440  -0.0496200   0.0000000  )
        10           H   tau(  10) = (   0.0000000  -0.0992400   0.0000000  )
        11           H   tau(  11) = (  -0.0859440  -0.0496200   0.0000000  )
        12           H   tau(  12) = (  -0.0859440   0.0496200   0.0000000  )
        13           Cl  tau(  13) = (   0.0241960   0.0419100   0.1200000  )

   Crystallographic axes

     site n.     atom                  positions (cryst. coord.)
         1           C   tau(   1) = (  0.0000000  0.0558800  0.0000000  )
         2           C   tau(   2) = (  0.0483920  0.0279400  0.0000000  )
         3           C   tau(   3) = (  0.0483920 -0.0279400  0.0000000  )
         4           C   tau(   4) = (  0.0000000 -0.0558800  0.0000000  )
         5           C   tau(   5) = ( -0.0483920 -0.0279400  0.0000000  )
         6           C   tau(   6) = ( -0.0483920  0.0279400  0.0000000  )
         7           H   tau(   7) = (  0.0000000  0.0992400  0.0000000  )
         8           H   tau(   8) = (  0.0859440  0.0496200  0.0000000  )
         9           H   tau(   9) = (  0.0859440 -0.0496200  0.0000000  )
        10           H   tau(  10) = (  0.0000000 -0.0992400  0.0000000  )
        11           H   tau(  11) = ( -0.0859440 -0.0496200  0.0000000  )
        12           H   tau(  12) = ( -0.0859440  0.0496200  0.0000000  )
        13           Cl  tau(  13) = (  0.0241960  0.0419100  0.1200000  )

     number of k points=     2
                       cart. coord. in units 2pi/alat
        k(    1) = (   0.0000000   0.0000000   0.0000000), wk =   1.0000000
        k(    2) = (   0.0000000   0.0000000   0.0000000), wk =   1.0000000

                       cryst. coord.
        k(    1) = (   0.0000000   0.0000000   0.0000000), wk =   1.0000000
        k(    2) = (   0.0000000   0.0000000   0.0000000), wk =   1.0000000

     Dense  grid:  9361977 G-vectors     FFT dimensions: ( 336, 336, 336)

     Largest allocated arrays     est. size (Mb)     dimensions
        Kohn-Sham Wavefunctions         0.70 Mb     (    1155,   40)
        NL pseudopotentials             2.52 Mb     (    1155,  143)
        Each V/rho on FFT grid          3.45 Mb     (  112896,   2)
        Each G-vector array             0.07 Mb     (    9154)
        G-vector shells                 0.03 Mb     (    3928)
     Largest temporary arrays     est. size (Mb)     dimensions
        Each subspace H/S matrix        0.00 Mb     (       1,    1)
        Each <psi_i|beta_j> matrix      0.04 Mb     (     143,   40)
        Arrays for rho mixing          13.78 Mb     (  112896,    8)
 
     Using Hirshfeld
        Amplitude [Ry a.u.] : -3.8778E-01
        Acceptor Fragment start :          13
        Acceptor Fragment end   :          13
        Donor Fragment start :           1
        Donor Fragment end   :          12
 

     Initial potential from superposition of free atoms
     Check: negative starting charge=(component1):   -0.004245
     Check: negative starting charge=(component2):   -0.004245

     starting charge   36.99968, renormalised to   37.00000

     negative rho (up, down):  4.245E-03 4.245E-03
     Starting wfc are  208 randomized atomic wfcs

     total cpu time spent up to now is       75.0 secs

     per-process dynamical memory:    73.7 Mb

     Self-consistent Calculation

     iteration #  1     ecut=   120.00 Ry     beta=0.70
     CG style diagonalization
     ethr =  1.00E-02,  avg # of iterations =  4.3

     negative rho (up, down):  1.075E-03 1.098E-03
 
     Magnetic moment per site:
     atom:    1    charge:    1.0221    magn:    0.0318    constr:    0.0000
     atom:    2    charge:    1.0235    magn:    0.0316    constr:    0.0000
     atom:    3    charge:    1.0216    magn:    0.0309    constr:    0.0000
     atom:    4    charge:    1.0196    magn:    0.0302    constr:    0.0000
     atom:    5    charge:    1.0214    magn:    0.0301    constr:    0.0000
     atom:    6    charge:    1.0219    magn:    0.0307    constr:    0.0000
     atom:    7    charge:    0.4449    magn:    0.0012    constr:    0.0000
     atom:    8    charge:    0.4447    magn:    0.0011    constr:    0.0000
     atom:    9    charge:    0.4443    magn:    0.0012    constr:    0.0000
     atom:   10    charge:    0.4445    magn:    0.0012    constr:    0.0000
     atom:   11    charge:    0.4442    magn:    0.0012    constr:    0.0000
     atom:   12    charge:    0.4445    magn:    0.0012    constr:    0.0000
     atom:   13    charge:    3.1678    magn:    0.0006    constr:    0.0000

     total cpu time spent up to now is       89.5 secs

     The total energy is the sum of the following terms:

     one-electron contribution =    -729.32947880 Ry
     hartree contribution      =     372.47366928 Ry
     xc contribution           =     -31.49729389 Ry
     ewald contribution        =     268.46058250 Ry

     total energy              =    -103.21412666 Ry
     Harris-Foulkes estimate   =    -117.32270202 Ry
     estimated scf accuracy    <      16.80427550 Ry

     total magnetization       =     1.00 Bohr mag/cell
     absolute magnetization    =     1.00 Bohr mag/cell

     iteration #  2     ecut=   120.00 Ry     beta=0.70
     CG style diagonalization
     ethr =  1.00E-02,  avg # of iterations =  9.7

     negative rho (up, down):  6.178E-04 6.772E-04
 
     Magnetic moment per site:
     atom:    1    charge:    0.8957    magn:    0.0296    constr:    0.0000
     atom:    2    charge:    0.8968    magn:    0.0293    constr:    0.0000
     atom:    3    charge:    0.8900    magn:    0.0271    constr:    0.0000
     atom:    4    charge:    0.8863    magn:    0.0260    constr:    0.0000
     atom:    5    charge:    0.8878    magn:    0.0259    constr:    0.0000
     atom:    6    charge:    0.8903    magn:    0.0270    constr:    0.0000
     atom:    7    charge:    0.4424    magn:    0.0056    constr:    0.0000
     atom:    8    charge:    0.4414    magn:    0.0062    constr:    0.0000
     atom:    9    charge:    0.4324    magn:    0.0026    constr:    0.0000
     atom:   10    charge:    0.4306    magn:    0.0018    constr:    0.0000
     atom:   11    charge:    0.4303    magn:    0.0017    constr:    0.0000
     atom:   12    charge:    0.4329    magn:    0.0025    constr:    0.0000
     atom:   13    charge:    5.4093    magn:    0.0109    constr:    0.0000

     total cpu time spent up to now is      112.1 secs

     The total energy is the sum of the following terms:

     one-electron contribution =    -564.65051646 Ry
     hartree contribution      =     346.97901907 Ry
     xc contribution           =     -30.22103629 Ry
     ewald contribution        =     268.46058250 Ry

     total energy              =     -86.30653063 Ry
     Harris-Foulkes estimate   =    -140.71301389 Ry
     estimated scf accuracy    <     202.20782808 Ry

     total magnetization       =     1.00 Bohr mag/cell
     absolute magnetization    =     1.20 Bohr mag/cell

     iteration #  3     ecut=   120.00 Ry     beta=0.70
     CG style diagonalization
     ethr =  1.00E-02,  avg # of iterations =  9.2

     negative rho (up, down):  3.268E-04 3.923E-04
 
     Magnetic moment per site:
     atom:    1    charge:    0.8717    magn:    0.0179    constr:    0.0000
     atom:    2    charge:    0.8767    magn:    0.0190    constr:    0.0000
     atom:    3    charge:    0.8696    magn:    0.0175    constr:    0.0000
     atom:    4    charge:    0.8626    magn:    0.0169    constr:    0.0000
     atom:    5    charge:    0.8646    magn:    0.0129    constr:    0.0000
     atom:    6    charge:    0.8676    magn:    0.0185    constr:    0.0000
     atom:    7    charge:    0.4603    magn:    0.0031    constr:    0.0000
     atom:    8    charge:    0.4612    magn:    0.0041    constr:    0.0000
     atom:    9    charge:    0.4569    magn:    0.0018    constr:    0.0000
     atom:   10    charge:    0.4569    magn:    0.0008    constr:    0.0000
     atom:   11    charge:    0.4562    magn:    0.0013    constr:    0.0000
     atom:   12    charge:    0.4576    magn:    0.0017    constr:    0.0000
     atom:   13    charge:    5.4509    magn:    0.0272    constr:    0.0000

     total cpu time spent up to now is      133.7 secs

     The total energy is the sum of the following terms:

     one-electron contribution =    -695.28216341 Ry
     hartree contribution      =     345.54623286 Ry
     xc contribution           =     -30.13765995 Ry
     ewald contribution        =     268.46058250 Ry

     total energy              =    -114.01465692 Ry
     Harris-Foulkes estimate   =    -114.12459070 Ry
     estimated scf accuracy    <       0.47732383 Ry

     total magnetization       =     1.00 Bohr mag/cell
     absolute magnetization    =     1.29 Bohr mag/cell

     iteration #  4     ecut=   120.00 Ry     beta=0.70
     CG style diagonalization
     c_bands:  1 eigenvalues not converged
     ethr =  1.29E-03,  avg # of iterations =  5.5

     negative rho (up, down):  2.612E-04 3.129E-04
 
     Magnetic moment per site:
     atom:    1    charge:    0.8695    magn:    0.0145    constr:    0.0000
     atom:    2    charge:    0.8722    magn:    0.0155    constr:    0.0000
     atom:    3    charge:    0.8654    magn:    0.0143    constr:    0.0000
     atom:    4    charge:    0.8594    magn:    0.0138    constr:    0.0000
     atom:    5    charge:    0.8619    magn:    0.0101    constr:    0.0000
     atom:    6    charge:    0.8656    magn:    0.0151    constr:    0.0000
     atom:    7    charge:    0.4686    magn:    0.0022    constr:    0.0000
     atom:    8    charge:    0.4689    magn:    0.0030    constr:    0.0000
     atom:    9    charge:    0.4663    magn:    0.0013    constr:    0.0000
     atom:   10    charge:    0.4670    magn:    0.0002    constr:    0.0000
     atom:   11    charge:    0.4662    magn:    0.0008    constr:    0.0000
     atom:   12    charge:    0.4670    magn:    0.0012    constr:    0.0000
     atom:   13    charge:    5.5678    magn:    0.2024    constr:    0.0000

     total cpu time spent up to now is      147.5 secs

     The total energy is the sum of the following terms:

     one-electron contribution =    -704.13887894 Ry
     hartree contribution      =     347.47959959 Ry
     xc contribution           =     -30.33695197 Ry
     ewald contribution        =     268.46058250 Ry

     total energy              =    -114.45071644 Ry
     Harris-Foulkes estimate   =    -114.52408277 Ry
     estimated scf accuracy    <       0.46431071 Ry

     total magnetization       =     1.00 Bohr mag/cell
     absolute magnetization    =     1.06 Bohr mag/cell

     iteration #  5     ecut=   120.00 Ry     beta=0.70
     CG style diagonalization
     ethr =  1.25E-03,  avg # of iterations =  3.0

     negative rho (up, down):  1.086E-04 1.292E-04
 
     Magnetic moment per site:
     atom:    1    charge:    0.8487    magn:    0.0062    constr:    0.0000
     atom:    2    charge:    0.8519    magn:    0.0063    constr:    0.0000
     atom:    3    charge:    0.8552    magn:    0.0071    constr:    0.0000
     atom:    4    charge:    0.8529    magn:    0.0077    constr:    0.0000
     atom:    5    charge:    0.8525    magn:    0.0056    constr:    0.0000
     atom:    6    charge:    0.8514    magn:    0.0075    constr:    0.0000
     atom:    7    charge:    0.4924    magn:    0.0000    constr:    0.0000
     atom:    8    charge:    0.4919    magn:    0.0003    constr:    0.0000
     atom:    9    charge:    0.4899    magn:   -0.0002    constr:    0.0000
     atom:   10    charge:    0.4880    magn:   -0.0004    constr:    0.0000
     atom:   11    charge:    0.4876    magn:    0.0002    constr:    0.0000
     atom:   12    charge:    0.4903    magn:   -0.0002    constr:    0.0000
     atom:   13    charge:    5.8029    magn:    0.6507    constr:    0.0000

     total cpu time spent up to now is      155.8 secs

     The total energy is the sum of the following terms:

     one-electron contribution =    -703.21725060 Ry
     hartree contribution      =     350.31909867 Ry
     xc contribution           =     -30.67736392 Ry
     ewald contribution        =     268.46058250 Ry

     total energy              =    -114.38193492 Ry
     Harris-Foulkes estimate   =    -114.45903492 Ry
     estimated scf accuracy    <       0.27849380 Ry

     total magnetization       =     1.00 Bohr mag/cell
     absolute magnetization    =     1.05 Bohr mag/cell

     iteration #  6     ecut=   120.00 Ry     beta=0.70
     CG style diagonalization
     ethr =  7.53E-04,  avg # of iterations =  3.5

     negative rho (up, down):  5.418E-05 6.089E-05
 
     Magnetic moment per site:
     atom:    1    charge:    0.8458    magn:    0.0035    constr:    0.0000
     atom:    2    charge:    0.8454    magn:    0.0030    constr:    0.0000
     atom:    3    charge:    0.8479    magn:    0.0026    constr:    0.0000
     atom:    4    charge:    0.8410    magn:    0.0046    constr:    0.0000
     atom:    5    charge:    0.8452    magn:    0.0029    constr:    0.0000
     atom:    6    charge:    0.8519    magn:    0.0026    constr:    0.0000
     atom:    7    charge:    0.4968    magn:   -0.0003    constr:    0.0000
     atom:    8    charge:    0.4961    magn:   -0.0001    constr:    0.0000
     atom:    9    charge:    0.4947    magn:   -0.0004    constr:    0.0000
     atom:   10    charge:    0.4938    magn:   -0.0006    constr:    0.0000
     atom:   11    charge:    0.4935    magn:   -0.0001    constr:    0.0000
     atom:   12    charge:    0.4951    magn:   -0.0005    constr:    0.0000
     atom:   13    charge:    5.8407    magn:    0.8134    constr:    0.0000

     total cpu time spent up to now is      165.3 secs

     The total energy is the sum of the following terms:

     one-electron contribution =    -702.52344380 Ry
     hartree contribution      =     350.66693702 Ry
     xc contribution           =     -30.71508811 Ry
     ewald contribution        =     268.46058250 Ry

     total energy              =    -114.40128367 Ry
     Harris-Foulkes estimate   =    -114.40395842 Ry
     estimated scf accuracy    <       0.02208833 Ry

     total magnetization       =     1.00 Bohr mag/cell
     absolute magnetization    =     1.10 Bohr mag/cell

     iteration #  7     ecut=   120.00 Ry     beta=0.70
     CG style diagonalization
     ethr =  5.97E-05,  avg # of iterations =  5.2

     negative rho (up, down):  4.040E-05 4.346E-05
 
     Magnetic moment per site:
     atom:    1    charge:    0.8424    magn:    0.0017    constr:    0.0000
     atom:    2    charge:    0.8456    magn:   -0.0007    constr:    0.0000
     atom:    3    charge:    0.8484    magn:   -0.0008    constr:    0.0000
     atom:    4    charge:    0.8407    magn:    0.0015    constr:    0.0000
     atom:    5    charge:    0.8447    magn:   -0.0012    constr:    0.0000
     atom:    6    charge:    0.8504    magn:   -0.0009    constr:    0.0000
     atom:    7    charge:    0.4963    magn:   -0.0001    constr:    0.0000
     atom:    8    charge:    0.4958    magn:   -0.0001    constr:    0.0000
     atom:    9    charge:    0.4944    magn:   -0.0003    constr:    0.0000
     atom:   10    charge:    0.4942    magn:   -0.0006    constr:    0.0000
     atom:   11    charge:    0.4938    magn:   -0.0002    constr:    0.0000
     atom:   12    charge:    0.4946    magn:   -0.0004    constr:    0.0000
     atom:   13    charge:    5.8081    magn:    0.9166    constr:    0.0000

     total cpu time spent up to now is      178.3 secs

     The total energy is the sum of the following terms:

     one-electron contribution =    -703.36454218 Ry
     hartree contribution      =     350.49029581 Ry
     xc contribution           =     -30.68409248 Ry
     ewald contribution        =     268.46058250 Ry

     total energy              =    -114.40380253 Ry
     Harris-Foulkes estimate   =    -114.40795801 Ry
     estimated scf accuracy    <       0.04136984 Ry

     total magnetization       =     1.00 Bohr mag/cell
     absolute magnetization    =     1.62 Bohr mag/cell

     iteration #  8     ecut=   120.00 Ry     beta=0.70
     CG style diagonalization
     ethr =  5.97E-05,  avg # of iterations =  3.1

     negative rho (up, down):  1.217E-02 3.066E-04
 
     Magnetic moment per site:
     atom:    1    charge:    0.8404    magn:    0.0011    constr:    0.0000
     atom:    2    charge:    0.8428    magn:   -0.0013    constr:    0.0000
     atom:    3    charge:    0.8470    magn:   -0.0041    constr:    0.0000
     atom:    4    charge:    0.8408    magn:    0.0002    constr:    0.0000
     atom:    5    charge:    0.8421    magn:   -0.0017    constr:    0.0000
     atom:    6    charge:    0.8463    magn:   -0.0044    constr:    0.0000
     atom:    7    charge:    0.4992    magn:   -0.0003    constr:    0.0000
     atom:    8    charge:    0.4986    magn:   -0.0003    constr:    0.0000
     atom:    9    charge:    0.4973    magn:   -0.0004    constr:    0.0000
     atom:   10    charge:    0.4973    magn:   -0.0004    constr:    0.0000
     atom:   11    charge:    0.4969    magn:   -0.0001    constr:    0.0000
     atom:   12    charge:    0.4973    magn:   -0.0005    constr:    0.0000
     atom:   13    charge:    5.8596    magn:    0.9958    constr:    0.0000

     total cpu time spent up to now is      186.4 secs

     The total energy is the sum of the following terms:

     one-electron contribution =    -702.65798513 Ry
     hartree contribution      =     350.96788185 Ry
     xc contribution           =     -30.75941820 Ry
     ewald contribution        =     268.46058250 Ry

     total energy              =    -114.40620936 Ry
     Harris-Foulkes estimate   =    -114.40868430 Ry
     estimated scf accuracy    <       0.00792398 Ry

     total magnetization       =     1.00 Bohr mag/cell
     absolute magnetization    =     1.24 Bohr mag/cell

     iteration #  9     ecut=   120.00 Ry     beta=0.70
     CG style diagonalization
     c_bands:  1 eigenvalues not converged
     c_bands:  1 eigenvalues not converged
     ethr =  2.14E-05,  avg # of iterations =  4.9

     negative rho (up, down):  9.372E-03 7.418E-05
 
     Magnetic moment per site:
     atom:    1    charge:    0.8414    magn:   -0.0002    constr:    0.0000
     atom:    2    charge:    0.8434    magn:   -0.0024    constr:    0.0000
     atom:    3    charge:    0.8464    magn:   -0.0046    constr:    0.0000
     atom:    4    charge:    0.8413    magn:   -0.0012    constr:    0.0000
     atom:    5    charge:    0.8426    magn:   -0.0030    constr:    0.0000
     atom:    6    charge:    0.8457    magn:   -0.0049    constr:    0.0000
     atom:    7    charge:    0.4990    magn:   -0.0003    constr:    0.0000
     atom:    8    charge:    0.4984    magn:   -0.0002    constr:    0.0000
     atom:    9    charge:    0.4969    magn:   -0.0003    constr:    0.0000
     atom:   10    charge:    0.4971    magn:   -0.0005    constr:    0.0000
     atom:   11    charge:    0.4967    magn:   -0.0002    constr:    0.0000
     atom:   12    charge:    0.4970    magn:   -0.0005    constr:    0.0000
     atom:   13    charge:    5.8476    magn:    1.0215    constr:    0.0000

     total cpu time spent up to now is      198.6 secs

     The total energy is the sum of the following terms:

     one-electron contribution =    -705.61267096 Ry
     hartree contribution      =     350.90281208 Ry
     xc contribution           =     -30.74906706 Ry
     ewald contribution        =     268.46058250 Ry

     total energy              =    -114.41179540 Ry
     Harris-Foulkes estimate   =    -114.41989171 Ry
     estimated scf accuracy    <       0.58653632 Ry

     total magnetization       =     1.00 Bohr mag/cell
     absolute magnetization    =     3.25 Bohr mag/cell

     iteration # 10     ecut=   120.00 Ry     beta=0.70
     CG style diagonalization
     ethr =  2.14E-05,  avg # of iterations =  3.0

     negative rho (up, down):  8.415E-03 1.080E-04
 
     Magnetic moment per site:
     atom:    1    charge:    0.8416    magn:   -0.0002    constr:    0.0000
     atom:    2    charge:    0.8441    magn:   -0.0035    constr:    0.0000
     atom:    3    charge:    0.8459    magn:   -0.0057    constr:    0.0000
     atom:    4    charge:    0.8411    magn:   -0.0018    constr:    0.0000
     atom:    5    charge:    0.8432    magn:   -0.0042    constr:    0.0000
     atom:    6    charge:    0.8454    magn:   -0.0060    constr:    0.0000
     atom:    7    charge:    0.4990    magn:   -0.0003    constr:    0.0000
     atom:    8    charge:    0.4984    magn:   -0.0002    constr:    0.0000
     atom:    9    charge:    0.4969    magn:   -0.0003    constr:    0.0000
     atom:   10    charge:    0.4970    magn:   -0.0004    constr:    0.0000
     atom:   11    charge:    0.4967    magn:   -0.0002    constr:    0.0000
     atom:   12    charge:    0.4970    magn:   -0.0004    constr:    0.0000
     atom:   13    charge:    5.8465    magn:    1.0463    constr:    0.0000

     total cpu time spent up to now is      206.6 secs

     The total energy is the sum of the following terms:

     one-electron contribution =    -704.57150232 Ry
     hartree contribution      =     350.91473239 Ry
     xc contribution           =     -30.75154304 Ry
     ewald contribution        =     268.46058250 Ry

     total energy              =    -114.41278841 Ry
     Harris-Foulkes estimate   =    -114.41306702 Ry
     estimated scf accuracy    <       0.24146333 Ry

     total magnetization       =     1.00 Bohr mag/cell
     absolute magnetization    =     2.62 Bohr mag/cell

     iteration # 11     ecut=   120.00 Ry     beta=0.70
     CG style diagonalization
     ethr =  2.14E-05,  avg # of iterations =  3.0

     negative rho (up, down):  5.164E-03 6.932E-06
 
     Magnetic moment per site:
     atom:    1    charge:    0.8416    magn:   -0.0006    constr:    0.0000
     atom:    2    charge:    0.8450    magn:   -0.0061    constr:    0.0000
     atom:    3    charge:    0.8466    magn:   -0.0096    constr:    0.0000
     atom:    4    charge:    0.8410    magn:   -0.0037    constr:    0.0000
     atom:    5    charge:    0.8437    magn:   -0.0073    constr:    0.0000
     atom:    6    charge:    0.8461    magn:   -0.0100    constr:    0.0000
     atom:    7    charge:    0.4984    magn:    0.0000    constr:    0.0000
     atom:    8    charge:    0.4978    magn:    0.0000    constr:    0.0000
     atom:    9    charge:    0.4963    magn:   -0.0002    constr:    0.0000
     atom:   10    charge:    0.4963    magn:   -0.0002    constr:    0.0000
     atom:   11    charge:    0.4960    magn:   -0.0001    constr:    0.0000
     atom:   12    charge:    0.4964    magn:   -0.0003    constr:    0.0000
     atom:   13    charge:    5.8265    magn:    1.1185    constr:    0.0000

     total cpu time spent up to now is      214.5 secs

     The total energy is the sum of the following terms:

     one-electron contribution =    -704.32966487 Ry
     hartree contribution      =     350.82840920 Ry
     xc contribution           =     -30.73866231 Ry
     ewald contribution        =     268.46058250 Ry

     total energy              =    -114.40646424 Ry
     Harris-Foulkes estimate   =    -114.41288998 Ry
     estimated scf accuracy    <       0.18478428 Ry

     total magnetization       =     1.00 Bohr mag/cell
     absolute magnetization    =     2.49 Bohr mag/cell

     iteration # 12     ecut=   120.00 Ry     beta=0.70
     CG style diagonalization
     ethr =  2.14E-05,  avg # of iterations =  4.1

     negative rho (up, down):  9.036E-04 1.649E-06
 
     Magnetic moment per site:
     atom:    1    charge:    0.8425    magn:   -0.0009    constr:    0.0000
     atom:    2    charge:    0.8448    magn:   -0.0058    constr:    0.0000
     atom:    3    charge:    0.8465    magn:   -0.0115    constr:    0.0000
     atom:    4    charge:    0.8413    magn:   -0.0046    constr:    0.0000
     atom:    5    charge:    0.8436    magn:   -0.0078    constr:    0.0000
     atom:    6    charge:    0.8463    magn:   -0.0119    constr:    0.0000
     atom:    7    charge:    0.4982    magn:    0.0000    constr:    0.0000
     atom:    8    charge:    0.4976    magn:    0.0001    constr:    0.0000
     atom:    9    charge:    0.4961    magn:   -0.0001    constr:    0.0000
     atom:   10    charge:    0.4961    magn:   -0.0001    constr:    0.0000
     atom:   11    charge:    0.4958    magn:    0.0000    constr:    0.0000
     atom:   12    charge:    0.4961    magn:   -0.0001    constr:    0.0000
     atom:   13    charge:    5.8183    magn:    1.1337    constr:    0.0000

     total cpu time spent up to now is      224.7 secs

     The total energy is the sum of the following terms:

     one-electron contribution =    -703.00975916 Ry
     hartree contribution      =     350.76814590 Ry
     xc contribution           =     -30.73180576 Ry
     ewald contribution        =     268.46058250 Ry

     total energy              =    -114.40994879 Ry
     Harris-Foulkes estimate   =    -114.41021075 Ry
     estimated scf accuracy    <       0.00382351 Ry

     total magnetization       =     1.00 Bohr mag/cell
     absolute magnetization    =     1.65 Bohr mag/cell

     iteration # 13     ecut=   120.00 Ry     beta=0.70
     CG style diagonalization
     ethr =  1.03E-05,  avg # of iterations =  4.9

     negative rho (up, down):  1.151E-04 1.310E-07
 
     Magnetic moment per site:
     atom:    1    charge:    0.8426    magn:   -0.0010    constr:    0.0000
     atom:    2    charge:    0.8449    magn:   -0.0052    constr:    0.0000
     atom:    3    charge:    0.8469    magn:   -0.0128    constr:    0.0000
     atom:    4    charge:    0.8412    magn:   -0.0051    constr:    0.0000
     atom:    5    charge:    0.8429    magn:   -0.0079    constr:    0.0000
     atom:    6    charge:    0.8463    magn:   -0.0132    constr:    0.0000
     atom:    7    charge:    0.4982    magn:    0.0001    constr:    0.0000
     atom:    8    charge:    0.4976    magn:    0.0003    constr:    0.0000
     atom:    9    charge:    0.4961    magn:    0.0001    constr:    0.0000
     atom:   10    charge:    0.4961    magn:    0.0000    constr:    0.0000
     atom:   11    charge:    0.4958    magn:    0.0002    constr:    0.0000
     atom:   12    charge:    0.4961    magn:    0.0001    constr:    0.0000
     atom:   13    charge:    5.8178    magn:    1.1374    constr:    0.0000

     total cpu time spent up to now is      236.6 secs

     The total energy is the sum of the following terms:

     one-electron contribution =    -702.82142860 Ry
     hartree contribution      =     350.77526889 Ry
     xc contribution           =     -30.73281527 Ry
     ewald contribution        =     268.46058250 Ry

     total energy              =    -114.41043979 Ry
     Harris-Foulkes estimate   =    -114.41028019 Ry
     estimated scf accuracy    <       0.00076780 Ry

     total magnetization       =     1.00 Bohr mag/cell
     absolute magnetization    =     1.53 Bohr mag/cell

     iteration # 14     ecut=   120.00 Ry     beta=0.70
     CG style diagonalization
     ethr =  2.08E-06,  avg # of iterations =  5.2

     negative rho (up, down):  1.142E-08 5.227E-08
 
     Magnetic moment per site:
     atom:    1    charge:    0.8425    magn:   -0.0009    constr:    0.0000
     atom:    2    charge:    0.8447    magn:   -0.0049    constr:    0.0000
     atom:    3    charge:    0.8468    magn:   -0.0143    constr:    0.0000
     atom:    4    charge:    0.8412    magn:   -0.0053    constr:    0.0000
     atom:    5    charge:    0.8433    magn:   -0.0082    constr:    0.0000
     atom:    6    charge:    0.8465    magn:   -0.0146    constr:    0.0000
     atom:    7    charge:    0.4982    magn:    0.0002    constr:    0.0000
     atom:    8    charge:    0.4976    magn:    0.0004    constr:    0.0000
     atom:    9    charge:    0.4960    magn:    0.0003    constr:    0.0000
     atom:   10    charge:    0.4961    magn:    0.0001    constr:    0.0000
     atom:   11    charge:    0.4957    magn:    0.0003    constr:    0.0000
     atom:   12    charge:    0.4960    magn:    0.0002    constr:    0.0000
     atom:   13    charge:    5.8163    magn:    1.1456    constr:    0.0000

     total cpu time spent up to now is      249.1 secs

     The total energy is the sum of the following terms:

     one-electron contribution =    -702.80943535 Ry
     hartree contribution      =     350.77970432 Ry
     xc contribution           =     -30.73404933 Ry
     ewald contribution        =     268.46058250 Ry

     total energy              =    -114.41067792 Ry
     Harris-Foulkes estimate   =    -114.41051197 Ry
     estimated scf accuracy    <       0.00085425 Ry

     total magnetization       =     1.00 Bohr mag/cell
     absolute magnetization    =     1.54 Bohr mag/cell

     iteration # 15     ecut=   120.00 Ry     beta=0.70
     CG style diagonalization
     c_bands:  1 eigenvalues not converged
     ethr =  2.08E-06,  avg # of iterations =  4.9

     negative rho (up, down):  1.181E-07 1.401E-07
 
     Magnetic moment per site:
     atom:    1    charge:    0.8423    magn:   -0.0006    constr:    0.0000
     atom:    2    charge:    0.8449    magn:   -0.0047    constr:    0.0000
     atom:    3    charge:    0.8468    magn:   -0.0154    constr:    0.0000
     atom:    4    charge:    0.8411    magn:   -0.0054    constr:    0.0000
     atom:    5    charge:    0.8433    magn:   -0.0084    constr:    0.0000
     atom:    6    charge:    0.8464    magn:   -0.0157    constr:    0.0000
     atom:    7    charge:    0.4982    magn:    0.0002    constr:    0.0000
     atom:    8    charge:    0.4976    magn:    0.0004    constr:    0.0000
     atom:    9    charge:    0.4960    magn:    0.0004    constr:    0.0000
     atom:   10    charge:    0.4961    magn:    0.0002    constr:    0.0000
     atom:   11    charge:    0.4957    magn:    0.0003    constr:    0.0000
     atom:   12    charge:    0.4960    magn:    0.0003    constr:    0.0000
     atom:   13    charge:    5.8160    magn:    1.1516    constr:    0.0000

     total cpu time spent up to now is      261.0 secs

     The total energy is the sum of the following terms:

     one-electron contribution =    -702.78725129 Ry
     hartree contribution      =     350.77916761 Ry
     xc contribution           =     -30.73463311 Ry
     ewald contribution        =     268.46058250 Ry

     total energy              =    -114.41086895 Ry
     Harris-Foulkes estimate   =    -114.41073508 Ry
     estimated scf accuracy    <       0.00117152 Ry

     total magnetization       =     1.00 Bohr mag/cell
     absolute magnetization    =     1.53 Bohr mag/cell

     iteration # 16     ecut=   120.00 Ry     beta=0.70
     CG style diagonalization
     ethr =  2.08E-06,  avg # of iterations =  3.1

     negative rho (up, down):  1.558E-09 4.583E-08
 
     Magnetic moment per site:
     atom:    1    charge:    0.8425    magn:   -0.0010    constr:    0.0000
     atom:    2    charge:    0.8444    magn:   -0.0042    constr:    0.0000
     atom:    3    charge:    0.8468    magn:   -0.0147    constr:    0.0000
     atom:    4    charge:    0.8414    magn:   -0.0054    constr:    0.0000
     atom:    5    charge:    0.8430    magn:   -0.0078    constr:    0.0000
     atom:    6    charge:    0.8463    magn:   -0.0151    constr:    0.0000
     atom:    7    charge:    0.4983    magn:    0.0002    constr:    0.0000
     atom:    8    charge:    0.4977    magn:    0.0004    constr:    0.0000
     atom:    9    charge:    0.4961    magn:    0.0003    constr:    0.0000
     atom:   10    charge:    0.4961    magn:    0.0002    constr:    0.0000
     atom:   11    charge:    0.4958    magn:    0.0003    constr:    0.0000
     atom:   12    charge:    0.4961    magn:    0.0003    constr:    0.0000
     atom:   13    charge:    5.8168    magn:    1.1426    constr:    0.0000

     total cpu time spent up to now is      268.9 secs

     The total energy is the sum of the following terms:

     one-electron contribution =    -702.81201140 Ry
     hartree contribution      =     350.77258562 Ry
     xc contribution           =     -30.73410728 Ry
     ewald contribution        =     268.46058250 Ry

     total energy              =    -114.41071972 Ry
     Harris-Foulkes estimate   =    -114.41092951 Ry
     estimated scf accuracy    <       0.00094138 Ry

     total magnetization       =     1.00 Bohr mag/cell
     absolute magnetization    =     1.55 Bohr mag/cell

     iteration # 17     ecut=   120.00 Ry     beta=0.70
     CG style diagonalization
     ethr =  2.08E-06,  avg # of iterations =  3.3

     negative rho (up, down):  1.459E-08 5.082E-07
 
     Magnetic moment per site:
     atom:    1    charge:    0.8426    magn:   -0.0012    constr:    0.0000
     atom:    2    charge:    0.8444    magn:   -0.0037    constr:    0.0000
     atom:    3    charge:    0.8468    magn:   -0.0147    constr:    0.0000
     atom:    4    charge:    0.8411    magn:   -0.0054    constr:    0.0000
     atom:    5    charge:    0.8428    magn:   -0.0074    constr:    0.0000
     atom:    6    charge:    0.8466    magn:   -0.0151    constr:    0.0000
     atom:    7    charge:    0.4983    magn:    0.0002    constr:    0.0000
     atom:    8    charge:    0.4977    magn:    0.0004    constr:    0.0000
     atom:    9    charge:    0.4961    magn:    0.0003    constr:    0.0000
     atom:   10    charge:    0.4961    magn:    0.0002    constr:    0.0000
     atom:   11    charge:    0.4958    magn:    0.0003    constr:    0.0000
     atom:   12    charge:    0.4961    magn:    0.0003    constr:    0.0000
     atom:   13    charge:    5.8180    magn:    1.1387    constr:    0.0000

     total cpu time spent up to now is      277.4 secs

     The total energy is the sum of the following terms:

     one-electron contribution =    -702.80818726 Ry
     hartree contribution      =     350.77519951 Ry
     xc contribution           =     -30.73509172 Ry
     ewald contribution        =     268.46058250 Ry

     total energy              =    -114.41046967 Ry
     Harris-Foulkes estimate   =    -114.41076447 Ry
     estimated scf accuracy    <       0.00107224 Ry

     total magnetization       =     1.00 Bohr mag/cell
     absolute magnetization    =     1.54 Bohr mag/cell

     iteration # 18     ecut=   120.00 Ry     beta=0.70
     CG style diagonalization
     ethr =  2.08E-06,  avg # of iterations =  3.4

     negative rho (up, down):  2.661E-04 5.595E-07
 
     Magnetic moment per site:
     atom:    1    charge:    0.8421    magn:    0.0000    constr:    0.0000
     atom:    2    charge:    0.8450    magn:   -0.0064    constr:    0.0000
     atom:    3    charge:    0.8467    magn:   -0.0116    constr:    0.0000
     atom:    4    charge:    0.8415    magn:   -0.0045    constr:    0.0000
     atom:    5    charge:    0.8436    magn:   -0.0087    constr:    0.0000
     atom:    6    charge:    0.8462    magn:   -0.0119    constr:    0.0000
     atom:    7    charge:    0.4982    magn:    0.0000    constr:    0.0000
     atom:    8    charge:    0.4975    magn:    0.0002    constr:    0.0000
     atom:    9    charge:    0.4960    magn:    0.0000    constr:    0.0000
     atom:   10    charge:    0.4962    magn:   -0.0001    constr:    0.0000
     atom:   11    charge:    0.4958    magn:    0.0001    constr:    0.0000
     atom:   12    charge:    0.4960    magn:   -0.0001    constr:    0.0000
     atom:   13    charge:    5.8163    magn:    1.1361    constr:    0.0000

     total cpu time spent up to now is      286.1 secs

     The total energy is the sum of the following terms:

     one-electron contribution =    -702.81023297 Ry
     hartree contribution      =     350.77138076 Ry
     xc contribution           =     -30.73053997 Ry
     ewald contribution        =     268.46058250 Ry

     total energy              =    -114.41046192 Ry
     Harris-Foulkes estimate   =    -114.41054410 Ry
     estimated scf accuracy    <       0.00092732 Ry

     total magnetization       =     1.00 Bohr mag/cell
     absolute magnetization    =     1.54 Bohr mag/cell

     iteration # 19     ecut=   120.00 Ry     beta=0.70
     CG style diagonalization
     ethr =  2.08E-06,  avg # of iterations =  5.5

     negative rho (up, down):  2.071E-04 1.131E-06
 
     Magnetic moment per site:
     atom:    1    charge:    0.8411    magn:    0.0028    constr:    0.0000
     atom:    2    charge:    0.8460    magn:   -0.0053    constr:    0.0000
     atom:    3    charge:    0.8468    magn:   -0.0156    constr:    0.0000
     atom:    4    charge:    0.8402    magn:   -0.0034    constr:    0.0000
     atom:    5    charge:    0.8438    magn:   -0.0086    constr:    0.0000
     atom:    6    charge:    0.8461    magn:   -0.0159    constr:    0.0000
     atom:    7    charge:    0.4984    magn:    0.0002    constr:    0.0000
     atom:    8    charge:    0.4976    magn:    0.0003    constr:    0.0000
     atom:    9    charge:    0.4960    magn:    0.0006    constr:    0.0000
     atom:   10    charge:    0.4962    magn:    0.0003    constr:    0.0000
     atom:   11    charge:    0.4957    magn:    0.0003    constr:    0.0000
     atom:   12    charge:    0.4960    magn:    0.0006    constr:    0.0000
     atom:   13    charge:    5.8190    magn:    1.1362    constr:    0.0000

     total cpu time spent up to now is      299.2 secs

     The total energy is the sum of the following terms:

     one-electron contribution =    -702.82814991 Ry
     hartree contribution      =     350.75078764 Ry
     xc contribution           =     -30.73398947 Ry
     ewald contribution        =     268.46058250 Ry

     total energy              =    -114.41075329 Ry
     Harris-Foulkes estimate   =    -114.41088439 Ry
     estimated scf accuracy    <       0.00060138 Ry

     total magnetization       =     1.00 Bohr mag/cell
     absolute magnetization    =     1.55 Bohr mag/cell

     iteration # 20     ecut=   120.00 Ry     beta=0.70
     CG style diagonalization
     ethr =  1.63E-06,  avg # of iterations =  4.0

     negative rho (up, down):  3.578E-07 3.328E-07
 
     Magnetic moment per site:
     atom:    1    charge:    0.8424    magn:    0.0014    constr:    0.0000
     atom:    2    charge:    0.8448    magn:   -0.0079    constr:    0.0000
     atom:    3    charge:    0.8464    magn:   -0.0096    constr:    0.0000
     atom:    4    charge:    0.8416    magn:   -0.0038    constr:    0.0000
     atom:    5    charge:    0.8438    magn:   -0.0091    constr:    0.0000
     atom:    6    charge:    0.8462    magn:   -0.0102    constr:    0.0000
     atom:    7    charge:    0.4982    magn:   -0.0001    constr:    0.0000
     atom:    8    charge:    0.4974    magn:    0.0003    constr:    0.0000
     atom:    9    charge:    0.4961    magn:   -0.0001    constr:    0.0000
     atom:   10    charge:    0.4962    magn:   -0.0001    constr:    0.0000
     atom:   11    charge:    0.4957    magn:    0.0001    constr:    0.0000
     atom:   12    charge:    0.4960    magn:   -0.0002    constr:    0.0000
     atom:   13    charge:    5.8171    magn:    1.1210    constr:    0.0000

     total cpu time spent up to now is      309.4 secs

     The total energy is the sum of the following terms:

     one-electron contribution =    -703.11604373 Ry
     hartree contribution      =     350.74512929 Ry
     xc contribution           =     -30.72637625 Ry
     ewald contribution        =     268.46058250 Ry

     total energy              =    -114.41080792 Ry
     Harris-Foulkes estimate   =    -114.41208639 Ry
     estimated scf accuracy    <       0.00385762 Ry

     total magnetization       =     1.00 Bohr mag/cell
     absolute magnetization    =     1.71 Bohr mag/cell

     iteration # 21     ecut=   120.00 Ry     beta=0.70
     CG style diagonalization
     c_bands:  1 eigenvalues not converged
     ethr =  1.63E-06,  avg # of iterations =  5.4

     negative rho (up, down):  1.683E-04 4.006E-08
 
     Magnetic moment per site:
     atom:    1    charge:    0.8413    magn:    0.0009    constr:    0.0000
     atom:    2    charge:    0.8450    magn:   -0.0044    constr:    0.0000
     atom:    3    charge:    0.8468    magn:   -0.0153    constr:    0.0000
     atom:    4    charge:    0.8405    magn:   -0.0041    constr:    0.0000
     atom:    5    charge:    0.8435    magn:   -0.0079    constr:    0.0000
     atom:    6    charge:    0.8467    magn:   -0.0155    constr:    0.0000
     atom:    7    charge:    0.4983    magn:    0.0002    constr:    0.0000
     atom:    8    charge:    0.4976    magn:    0.0002    constr:    0.0000
     atom:    9    charge:    0.4961    magn:    0.0003    constr:    0.0000
     atom:   10    charge:    0.4962    magn:    0.0002    constr:    0.0000
     atom:   11    charge:    0.4958    magn:    0.0002    constr:    0.0000
     atom:   12    charge:    0.4961    magn:    0.0003    constr:    0.0000
     atom:   13    charge:    5.8174    magn:    1.1407    constr:    0.0000

     total cpu time spent up to now is      322.3 secs

     The total energy is the sum of the following terms:

     one-electron contribution =    -702.93845222 Ry
     hartree contribution      =     350.74639864 Ry
     xc contribution           =     -30.73129153 Ry
     ewald contribution        =     268.46058250 Ry

     total energy              =    -114.41051225 Ry
     Harris-Foulkes estimate   =    -114.41127599 Ry
     estimated scf accuracy    <       0.00094200 Ry

     total magnetization       =     1.00 Bohr mag/cell
     absolute magnetization    =     1.59 Bohr mag/cell

     iteration # 22     ecut=   120.00 Ry     beta=0.70
     CG style diagonalization
     c_bands:  1 eigenvalues not converged
     ethr =  1.63E-06,  avg # of iterations =  5.2

     negative rho (up, down):  1.694E-04 4.715E-08
 
     Magnetic moment per site:
     atom:    1    charge:    0.8415    magn:    0.0011    constr:    0.0000
     atom:    2    charge:    0.8447    magn:   -0.0040    constr:    0.0000
     atom:    3    charge:    0.8469    magn:   -0.0152    constr:    0.0000
     atom:    4    charge:    0.8406    magn:   -0.0038    constr:    0.0000
     atom:    5    charge:    0.8433    magn:   -0.0073    constr:    0.0000
     atom:    6    charge:    0.8468    magn:   -0.0153    constr:    0.0000
     atom:    7    charge:    0.4983    magn:    0.0002    constr:    0.0000
     atom:    8    charge:    0.4976    magn:    0.0002    constr:    0.0000
     atom:    9    charge:    0.4960    magn:    0.0002    constr:    0.0000
     atom:   10    charge:    0.4962    magn:    0.0001    constr:    0.0000
     atom:   11    charge:    0.4958    magn:    0.0002    constr:    0.0000
     atom:   12    charge:    0.4961    magn:    0.0002    constr:    0.0000
     atom:   13    charge:    5.8190    magn:    1.1345    constr:    0.0000

     total cpu time spent up to now is      334.8 secs

     The total energy is the sum of the following terms:

     one-electron contribution =    -702.91677632 Ry
     hartree contribution      =     350.74397915 Ry
     xc contribution           =     -30.73186041 Ry
     ewald contribution        =     268.46058250 Ry

     total energy              =    -114.41062644 Ry
     Harris-Foulkes estimate   =    -114.41103181 Ry
     estimated scf accuracy    <       0.00043432 Ry

     total magnetization       =     1.00 Bohr mag/cell
     absolute magnetization    =     1.60 Bohr mag/cell

     iteration # 23     ecut=   120.00 Ry     beta=0.70
     CG style diagonalization
     ethr =  1.17E-06,  avg # of iterations =  3.1

     negative rho (up, down):  1.700E-04 3.388E-08
 
     Magnetic moment per site:
     atom:    1    charge:    0.8413    magn:    0.0015    constr:    0.0000
     atom:    2    charge:    0.8446    magn:   -0.0023    constr:    0.0000
     atom:    3    charge:    0.8474    magn:   -0.0181    constr:    0.0000
     atom:    4    charge:    0.8403    magn:   -0.0035    constr:    0.0000
     atom:    5    charge:    0.8429    magn:   -0.0065    constr:    0.0000
     atom:    6    charge:    0.8471    magn:   -0.0180    constr:    0.0000
     atom:    7    charge:    0.4983    magn:    0.0003    constr:    0.0000
     atom:    8    charge:    0.4977    magn:    0.0002    constr:    0.0000
     atom:    9    charge:    0.4960    magn:    0.0004    constr:    0.0000
     atom:   10    charge:    0.4962    magn:    0.0002    constr:    0.0000
     atom:   11    charge:    0.4958    magn:    0.0002    constr:    0.0000
     atom:   12    charge:    0.4960    magn:    0.0003    constr:    0.0000
     atom:   13    charge:    5.8197    magn:    1.1423    constr:    0.0000

     total cpu time spent up to now is      342.7 secs

     The total energy is the sum of the following terms:

     one-electron contribution =    -702.92948024 Ry
     hartree contribution      =     350.74426087 Ry
     xc contribution           =     -30.73629582 Ry
     ewald contribution        =     268.46058250 Ry

     total energy              =    -114.41006872 Ry
     Harris-Foulkes estimate   =    -114.41075498 Ry
     estimated scf accuracy    <       0.00050712 Ry

     total magnetization       =     1.00 Bohr mag/cell
     absolute magnetization    =     1.61 Bohr mag/cell

     iteration # 24     ecut=   120.00 Ry     beta=0.70
     CG style diagonalization
     c_bands:  1 eigenvalues not converged
     ethr =  1.17E-06,  avg # of iterations =  3.8

     negative rho (up, down):  3.363E-04 2.533E-07
 
     Magnetic moment per site:
     atom:    1    charge:    0.8410    magn:    0.0012    constr:    0.0000
     atom:    2    charge:    0.8451    magn:   -0.0024    constr:    0.0000
     atom:    3    charge:    0.8472    magn:   -0.0186    constr:    0.0000
     atom:    4    charge:    0.8401    magn:   -0.0040    constr:    0.0000
     atom:    5    charge:    0.8431    magn:   -0.0071    constr:    0.0000
     atom:    6    charge:    0.8468    magn:   -0.0185    constr:    0.0000
     atom:    7    charge:    0.4983    magn:    0.0004    constr:    0.0000
     atom:    8    charge:    0.4977    magn:    0.0002    constr:    0.0000
     atom:    9    charge:    0.4960    magn:    0.0005    constr:    0.0000
     atom:   10    charge:    0.4962    magn:    0.0003    constr:    0.0000
     atom:   11    charge:    0.4958    magn:    0.0003    constr:    0.0000
     atom:   12    charge:    0.4961    magn:    0.0005    constr:    0.0000
     atom:   13    charge:    5.8187    magn:    1.1479    constr:    0.0000

     total cpu time spent up to now is      352.1 secs

     The total energy is the sum of the following terms:

     one-electron contribution =    -702.92996444 Ry
     hartree contribution      =     350.75709595 Ry
     xc contribution           =     -30.73731141 Ry
     ewald contribution        =     268.46058250 Ry

     total energy              =    -114.41050564 Ry
     Harris-Foulkes estimate   =    -114.41041582 Ry
     estimated scf accuracy    <       0.00045235 Ry

     total magnetization       =     1.00 Bohr mag/cell
     absolute magnetization    =     1.63 Bohr mag/cell

     iteration # 25     ecut=   120.00 Ry     beta=0.70
     CG style diagonalization
     ethr =  1.17E-06,  avg # of iterations =  4.3

     negative rho (up, down):  1.629E-04 4.545E-08
 
     Magnetic moment per site:
     atom:    1    charge:    0.8410    magn:    0.0022    constr:    0.0000
     atom:    2    charge:    0.8443    magn:   -0.0018    constr:    0.0000
     atom:    3    charge:    0.8478    magn:   -0.0195    constr:    0.0000
     atom:    4    charge:    0.8397    magn:   -0.0030    constr:    0.0000
     atom:    5    charge:    0.8424    magn:   -0.0061    constr:    0.0000
     atom:    6    charge:    0.8476    magn:   -0.0194    constr:    0.0000
     atom:    7    charge:    0.4983    magn:    0.0003    constr:    0.0000
     atom:    8    charge:    0.4977    magn:    0.0003    constr:    0.0000
     atom:    9    charge:    0.4960    magn:    0.0004    constr:    0.0000
     atom:   10    charge:    0.4962    magn:    0.0002    constr:    0.0000
     atom:   11    charge:    0.4958    magn:    0.0003    constr:    0.0000
     atom:   12    charge:    0.4960    magn:    0.0004    constr:    0.0000
     atom:   13    charge:    5.8209    magn:    1.1428    constr:    0.0000

     total cpu time spent up to now is      362.7 secs

     The total energy is the sum of the following terms:

     one-electron contribution =    -702.95245516 Ry
     hartree contribution      =     350.74107823 Ry
     xc contribution           =     -30.73714328 Ry
     ewald contribution        =     268.46058250 Ry

     total energy              =    -114.40894514 Ry
     Harris-Foulkes estimate   =    -114.41083844 Ry
     estimated scf accuracy    <       0.00061276 Ry

     total magnetization       =     1.00 Bohr mag/cell
     absolute magnetization    =     1.64 Bohr mag/cell

     iteration # 26     ecut=   120.00 Ry     beta=0.70
     CG style diagonalization
     ethr =  1.17E-06,  avg # of iterations =  4.3

     negative rho (up, down):  4.182E-05 2.658E-05
 
     Magnetic moment per site:
     atom:    1    charge:    0.8412    magn:    0.0033    constr:    0.0000
     atom:    2    charge:    0.8434    magn:    0.0003    constr:    0.0000
     atom:    3    charge:    0.8482    magn:   -0.0228    constr:    0.0000
     atom:    4    charge:    0.8394    magn:   -0.0018    constr:    0.0000
     atom:    5    charge:    0.8418    magn:   -0.0045    constr:    0.0000
     atom:    6    charge:    0.8483    magn:   -0.0225    constr:    0.0000
     atom:    7    charge:    0.4983    magn:    0.0003    constr:    0.0000
     atom:    8    charge:    0.4978    magn:    0.0004    constr:    0.0000
     atom:    9    charge:    0.4959    magn:    0.0004    constr:    0.0000
     atom:   10    charge:    0.4962    magn:    0.0002    constr:    0.0000
     atom:   11    charge:    0.4959    magn:    0.0003    constr:    0.0000
     atom:   12    charge:    0.4959    magn:    0.0004    constr:    0.0000
     atom:   13    charge:    5.8234    magn:    1.1439    constr:    0.0000

     total cpu time spent up to now is      373.3 secs

     The total energy is the sum of the following terms:

     one-electron contribution =    -702.93908178 Ry
     hartree contribution      =     350.73210863 Ry
     xc contribution           =     -30.74720135 Ry
     ewald contribution        =     268.46058250 Ry

     total energy              =    -114.40718288 Ry
     Harris-Foulkes estimate   =    -114.41013050 Ry
     estimated scf accuracy    <       0.00052702 Ry

     total magnetization       =     1.00 Bohr mag/cell
     absolute magnetization    =     1.65 Bohr mag/cell

     iteration # 27     ecut=   120.00 Ry     beta=0.70
     CG style diagonalization
     ethr =  1.17E-06,  avg # of iterations =  5.1

     negative rho (up, down):  9.998E-05 1.691E-05
 
     Magnetic moment per site:
     atom:    1    charge:    0.8413    magn:    0.0032    constr:    0.0000
     atom:    2    charge:    0.8437    magn:    0.0002    constr:    0.0000
     atom:    3    charge:    0.8481    magn:   -0.0225    constr:    0.0000
     atom:    4    charge:    0.8395    magn:   -0.0020    constr:    0.0000
     atom:    5    charge:    0.8420    magn:   -0.0047    constr:    0.0000
     atom:    6    charge:    0.8481    magn:   -0.0221    constr:    0.0000
     atom:    7    charge:    0.4983    magn:    0.0003    constr:    0.0000
     atom:    8    charge:    0.4977    magn:    0.0003    constr:    0.0000
     atom:    9    charge:    0.4959    magn:    0.0004    constr:    0.0000
     atom:   10    charge:    0.4962    magn:    0.0002    constr:    0.0000
     atom:   11    charge:    0.4959    magn:    0.0003    constr:    0.0000
     atom:   12    charge:    0.4959    magn:    0.0004    constr:    0.0000
     atom:   13    charge:    5.8230    magn:    1.1440    constr:    0.0000

     total cpu time spent up to now is      385.4 secs

     The total energy is the sum of the following terms:

     one-electron contribution =    -702.98773782 Ry
     hartree contribution      =     350.73791807 Ry
     xc contribution           =     -30.74632139 Ry
     ewald contribution        =     268.46058250 Ry

     total energy              =    -114.40936444 Ry
     Harris-Foulkes estimate   =    -114.40938828 Ry
     estimated scf accuracy    <       0.00212185 Ry

     total magnetization       =     1.00 Bohr mag/cell
     absolute magnetization    =     1.73 Bohr mag/cell

     iteration # 28     ecut=   120.00 Ry     beta=0.70
     CG style diagonalization
     ethr =  1.17E-06,  avg # of iterations =  3.7

     negative rho (up, down):  2.323E-05 3.420E-04
 
     Magnetic moment per site:
     atom:    1    charge:    0.8410    magn:    0.0049    constr:    0.0000
     atom:    2    charge:    0.8430    magn:    0.0018    constr:    0.0000
     atom:    3    charge:    0.8488    magn:   -0.0256    constr:    0.0000
     atom:    4    charge:    0.8393    magn:   -0.0004    constr:    0.0000
     atom:    5    charge:    0.8415    magn:   -0.0034    constr:    0.0000
     atom:    6    charge:    0.8487    magn:   -0.0249    constr:    0.0000
     atom:    7    charge:    0.4983    magn:    0.0003    constr:    0.0000
     atom:    8    charge:    0.4977    magn:    0.0004    constr:    0.0000
     atom:    9    charge:    0.4958    magn:    0.0004    constr:    0.0000
     atom:   10    charge:    0.4962    magn:    0.0002    constr:    0.0000
     atom:   11    charge:    0.4959    magn:    0.0002    constr:    0.0000
     atom:   12    charge:    0.4958    magn:    0.0004    constr:    0.0000
     atom:   13    charge:    5.8257    magn:    1.1441    constr:    0.0000

     total cpu time spent up to now is      394.7 secs

     The total energy is the sum of the following terms:

     one-electron contribution =    -702.98264064 Ry
     hartree contribution      =     350.73502520 Ry
     xc contribution           =     -30.76279269 Ry
     ewald contribution        =     268.46058250 Ry

     total energy              =    -114.40759253 Ry
     Harris-Foulkes estimate   =    -114.40950849 Ry
     estimated scf accuracy    <       0.00188784 Ry

     total magnetization       =     1.00 Bohr mag/cell
     absolute magnetization    =     1.72 Bohr mag/cell

     iteration # 29     ecut=   120.00 Ry     beta=0.70
     CG style diagonalization
     c_bands:  1 eigenvalues not converged
     ethr =  1.17E-06,  avg # of iterations =  4.6

     negative rho (up, down):  4.141E-06 0.000E+00
 
     Magnetic moment per site:
     atom:    1    charge:    0.8422    magn:    0.0019    constr:    0.0000
     atom:    2    charge:    0.8435    magn:   -0.0008    constr:    0.0000
     atom:    3    charge:    0.8477    magn:   -0.0194    constr:    0.0000
     atom:    4    charge:    0.8409    magn:   -0.0033    constr:    0.0000
     atom:    5    charge:    0.8424    magn:   -0.0054    constr:    0.0000
     atom:    6    charge:    0.8475    magn:   -0.0195    constr:    0.0000
     atom:    7    charge:    0.4981    magn:    0.0003    constr:    0.0000
     atom:    8    charge:    0.4977    magn:    0.0003    constr:    0.0000
     atom:    9    charge:    0.4959    magn:    0.0005    constr:    0.0000
     atom:   10    charge:    0.4961    magn:    0.0002    constr:    0.0000
     atom:   11    charge:    0.4958    magn:    0.0003    constr:    0.0000
     atom:   12    charge:    0.4958    magn:    0.0005    constr:    0.0000
     atom:   13    charge:    5.8229    magn:    1.1364    constr:    0.0000

     total cpu time spent up to now is      405.8 secs

     The total energy is the sum of the following terms:

     one-electron contribution =    -703.09731343 Ry
     hartree contribution      =     350.75549036 Ry
     xc contribution           =     -30.73598284 Ry
     ewald contribution        =     268.46058250 Ry

     total energy              =    -114.40726052 Ry
     Harris-Foulkes estimate   =    -114.40865357 Ry
     estimated scf accuracy    <       0.00912950 Ry

     total magnetization       =     1.00 Bohr mag/cell
     absolute magnetization    =     1.84 Bohr mag/cell

     iteration # 30     ecut=   120.00 Ry     beta=0.70
     CG style diagonalization
     c_bands:  1 eigenvalues not converged
     ethr =  1.17E-06,  avg # of iterations =  5.4

     negative rho (up, down):  6.502E-07 2.752E-09
 
     Magnetic moment per site:
     atom:    1    charge:    0.8420    magn:    0.0023    constr:    0.0000
     atom:    2    charge:    0.8436    magn:    0.0007    constr:    0.0000
     atom:    3    charge:    0.8477    magn:   -0.0220    constr:    0.0000
     atom:    4    charge:    0.8406    magn:   -0.0030    constr:    0.0000
     atom:    5    charge:    0.8423    magn:   -0.0047    constr:    0.0000
     atom:    6    charge:    0.8476    magn:   -0.0220    constr:    0.0000
     atom:    7    charge:    0.4982    magn:    0.0003    constr:    0.0000
     atom:    8    charge:    0.4978    magn:    0.0003    constr:    0.0000
     atom:    9    charge:    0.4959    magn:    0.0007    constr:    0.0000
     atom:   10    charge:    0.4961    magn:    0.0003    constr:    0.0000
     atom:   11    charge:    0.4958    magn:    0.0003    constr:    0.0000
     atom:   12    charge:    0.4959    magn:    0.0007    constr:    0.0000
     atom:   13    charge:    5.8217    magn:    1.1449    constr:    0.0000

     total cpu time spent up to now is      418.8 secs

     The total energy is the sum of the following terms:

     one-electron contribution =    -702.91226571 Ry
     hartree contribution      =     350.74704153 Ry
     xc contribution           =     -30.73574716 Ry
     ewald contribution        =     268.46058250 Ry

     total energy              =    -114.40972008 Ry
     Harris-Foulkes estimate   =    -114.40989900 Ry
     estimated scf accuracy    <       0.00040534 Ry

     total magnetization       =     1.00 Bohr mag/cell
     absolute magnetization    =     1.65 Bohr mag/cell

     iteration # 31     ecut=   120.00 Ry     beta=0.70
     CG style diagonalization
     c_bands:  1 eigenvalues not converged
     ethr =  1.10E-06,  avg # of iterations =  3.7

     negative rho (up, down):  3.558E-11 2.140E-05
 
     Magnetic moment per site:
     atom:    1    charge:    0.8420    magn:    0.0032    constr:    0.0000
     atom:    2    charge:    0.8430    magn:    0.0030    constr:    0.0000
     atom:    3    charge:    0.8483    magn:   -0.0254    constr:    0.0000
     atom:    4    charge:    0.8403    magn:   -0.0021    constr:    0.0000
     atom:    5    charge:    0.8415    magn:   -0.0030    constr:    0.0000
     atom:    6    charge:    0.8483    magn:   -0.0252    constr:    0.0000
     atom:    7    charge:    0.4982    magn:    0.0002    constr:    0.0000
     atom:    8    charge:    0.4979    magn:    0.0003    constr:    0.0000
     atom:    9    charge:    0.4958    magn:    0.0007    constr:    0.0000
     atom:   10    charge:    0.4961    magn:    0.0002    constr:    0.0000
     atom:   11    charge:    0.4959    magn:    0.0003    constr:    0.0000
     atom:   12    charge:    0.4958    magn:    0.0007    constr:    0.0000
     atom:   13    charge:    5.8227    magn:    1.1488    constr:    0.0000

     total cpu time spent up to now is      428.1 secs

     The total energy is the sum of the following terms:

     one-electron contribution =    -702.91114222 Ry
     hartree contribution      =     350.74149892 Ry
     xc contribution           =     -30.74742704 Ry
     ewald contribution        =     268.46058250 Ry

     total energy              =    -114.40750722 Ry
     Harris-Foulkes estimate   =    -114.40982396 Ry
     estimated scf accuracy    <       0.00020455 Ry

     total magnetization       =     1.00 Bohr mag/cell
     absolute magnetization    =     1.66 Bohr mag/cell

     iteration # 32     ecut=   120.00 Ry     beta=0.70
     CG style diagonalization
     c_bands:  1 eigenvalues not converged
     ethr =  5.53E-07,  avg # of iterations =  5.6

     negative rho (up, down):  1.252E-11 5.694E-07
 
     Magnetic moment per site:
     atom:    1    charge:    0.8422    magn:    0.0022    constr:    0.0000
     atom:    2    charge:    0.8432    magn:    0.0025    constr:    0.0000
     atom:    3    charge:    0.8479    magn:   -0.0237    constr:    0.0000
     atom:    4    charge:    0.8408    magn:   -0.0029    constr:    0.0000
     atom:    5    charge:    0.8416    magn:   -0.0032    constr:    0.0000
     atom:    6    charge:    0.8479    magn:   -0.0238    constr:    0.0000
     atom:    7    charge:    0.4981    magn:    0.0002    constr:    0.0000
     atom:    8    charge:    0.4979    magn:    0.0003    constr:    0.0000
     atom:    9    charge:    0.4959    magn:    0.0007    constr:    0.0000
     atom:   10    charge:    0.4961    magn:    0.0002    constr:    0.0000
     atom:   11    charge:    0.4959    magn:    0.0003    constr:    0.0000
     atom:   12    charge:    0.4958    magn:    0.0007    constr:    0.0000
     atom:   13    charge:    5.8219    magn:    1.1469    constr:    0.0000

     total cpu time spent up to now is      441.4 secs

     The total energy is the sum of the following terms:

     one-electron contribution =    -702.99379502 Ry
     hartree contribution      =     350.74587302 Ry
     xc contribution           =     -30.74020708 Ry
     ewald contribution        =     268.46058250 Ry

     total energy              =    -114.40956715 Ry
     Harris-Foulkes estimate   =    -114.40949230 Ry
     estimated scf accuracy    <       0.00214671 Ry

     total magnetization       =     1.00 Bohr mag/cell
     absolute magnetization    =     1.75 Bohr mag/cell

     iteration # 33     ecut=   120.00 Ry     beta=0.70
     CG style diagonalization
     c_bands:  1 eigenvalues not converged
     ethr =  5.53E-07,  avg # of iterations =  4.0
 
     Magnetic moment per site:
     atom:    1    charge:    0.8422    magn:    0.0017    constr:    0.0000
     atom:    2    charge:    0.8437    magn:    0.0011    constr:    0.0000
     atom:    3    charge:    0.8474    magn:   -0.0219    constr:    0.0000
     atom:    4    charge:    0.8409    magn:   -0.0036    constr:    0.0000
     atom:    5    charge:    0.8423    magn:   -0.0044    constr:    0.0000
     atom:    6    charge:    0.8474    magn:   -0.0221    constr:    0.0000
     atom:    7    charge:    0.4982    magn:    0.0002    constr:    0.0000
     atom:    8    charge:    0.4979    magn:    0.0003    constr:    0.0000
     atom:    9    charge:    0.4959    magn:    0.0007    constr:    0.0000
     atom:   10    charge:    0.4961    magn:    0.0002    constr:    0.0000
     atom:   11    charge:    0.4958    magn:    0.0003    constr:    0.0000
     atom:   12    charge:    0.4959    magn:    0.0007    constr:    0.0000
     atom:   13    charge:    5.8202    magn:    1.1468    constr:    0.0000

     total cpu time spent up to now is      451.3 secs

     The total energy is the sum of the following terms:

     one-electron contribution =    -702.94217125 Ry
     hartree contribution      =     350.75133760 Ry
     xc contribution           =     -30.73151354 Ry
     ewald contribution        =     268.46058250 Ry

     total energy              =    -114.40872675 Ry
     Harris-Foulkes estimate   =    -114.40972105 Ry
     estimated scf accuracy    <       0.00057949 Ry

     total magnetization       =     1.00 Bohr mag/cell
     absolute magnetization    =     1.70 Bohr mag/cell

     iteration # 34     ecut=   120.00 Ry     beta=0.70
     CG style diagonalization
     ethr =  5.53E-07,  avg # of iterations =  4.4
 
     Magnetic moment per site:
     atom:    1    charge:    0.8422    magn:    0.0023    constr:    0.0000
     atom:    2    charge:    0.8436    magn:    0.0024    constr:    0.0000
     atom:    3    charge:    0.8476    magn:   -0.0238    constr:    0.0000
     atom:    4    charge:    0.8407    magn:   -0.0030    constr:    0.0000
     atom:    5    charge:    0.8422    magn:   -0.0033    constr:    0.0000
     atom:    6    charge:    0.8476    magn:   -0.0239    constr:    0.0000
     atom:    7    charge:    0.4982    magn:    0.0002    constr:    0.0000
     atom:    8    charge:    0.4980    magn:    0.0002    constr:    0.0000
     atom:    9    charge:    0.4958    magn:    0.0007    constr:    0.0000
     atom:   10    charge:    0.4961    magn:    0.0002    constr:    0.0000
     atom:   11    charge:    0.4959    magn:    0.0002    constr:    0.0000
     atom:   12    charge:    0.4958    magn:    0.0007    constr:    0.0000
     atom:   13    charge:    5.8201    magn:    1.1489    constr:    0.0000

     total cpu time spent up to now is      462.1 secs

     The total energy is the sum of the following terms:

     one-electron contribution =    -702.85859030 Ry
     hartree contribution      =     350.74798252 Ry
     xc contribution           =     -30.73680097 Ry
     ewald contribution        =     268.46058250 Ry

     total energy              =    -114.40931696 Ry
     Harris-Foulkes estimate   =    -114.40968563 Ry
     estimated scf accuracy    <       0.00016988 Ry

     total magnetization       =     1.00 Bohr mag/cell
     absolute magnetization    =     1.63 Bohr mag/cell

     iteration # 35     ecut=   120.00 Ry     beta=0.70
     CG style diagonalization
     ethr =  4.59E-07,  avg # of iterations =  3.8
 
     Magnetic moment per site:
     atom:    1    charge:    0.8421    magn:    0.0024    constr:    0.0000
     atom:    2    charge:    0.8437    magn:    0.0019    constr:    0.0000
     atom:    3    charge:    0.8475    magn:   -0.0233    constr:    0.0000
     atom:    4    charge:    0.8406    magn:   -0.0030    constr:    0.0000
     atom:    5    charge:    0.8423    magn:   -0.0036    constr:    0.0000
     atom:    6    charge:    0.8475    magn:   -0.0233    constr:    0.0000
     atom:    7    charge:    0.4982    magn:    0.0002    constr:    0.0000
     atom:    8    charge:    0.4979    magn:    0.0002    constr:    0.0000
     atom:    9    charge:    0.4959    magn:    0.0007    constr:    0.0000
     atom:   10    charge:    0.4961    magn:    0.0002    constr:    0.0000
     atom:   11    charge:    0.4958    magn:    0.0002    constr:    0.0000
     atom:   12    charge:    0.4959    magn:    0.0007    constr:    0.0000
     atom:   13    charge:    5.8203    magn:    1.1476    constr:    0.0000

     total cpu time spent up to now is      471.6 secs

     The total energy is the sum of the following terms:

     one-electron contribution =    -702.88562576 Ry
     hartree contribution      =     350.74516120 Ry
     xc contribution           =     -30.73513779 Ry
     ewald contribution        =     268.46058250 Ry

     total energy              =    -114.40963316 Ry
     Harris-Foulkes estimate   =    -114.40970285 Ry
     estimated scf accuracy    <       0.00002690 Ry

     total magnetization       =     1.00 Bohr mag/cell
     absolute magnetization    =     1.66 Bohr mag/cell

     iteration # 36     ecut=   120.00 Ry     beta=0.70
     CG style diagonalization
     ethr =  7.27E-08,  avg # of iterations =  4.4
 
     Magnetic moment per site:
     atom:    1    charge:    0.8421    magn:    0.0024    constr:    0.0000
     atom:    2    charge:    0.8437    magn:    0.0021    constr:    0.0000
     atom:    3    charge:    0.8475    magn:   -0.0234    constr:    0.0000
     atom:    4    charge:    0.8407    magn:   -0.0031    constr:    0.0000
     atom:    5    charge:    0.8422    magn:   -0.0034    constr:    0.0000
     atom:    6    charge:    0.8476    magn:   -0.0235    constr:    0.0000
     atom:    7    charge:    0.4982    magn:    0.0002    constr:    0.0000
     atom:    8    charge:    0.4979    magn:    0.0002    constr:    0.0000
     atom:    9    charge:    0.4959    magn:    0.0008    constr:    0.0000
     atom:   10    charge:    0.4961    magn:    0.0002    constr:    0.0000
     atom:   11    charge:    0.4958    magn:    0.0002    constr:    0.0000
     atom:   12    charge:    0.4959    magn:    0.0008    constr:    0.0000
     atom:   13    charge:    5.8203    magn:    1.1478    constr:    0.0000

     total cpu time spent up to now is      482.4 secs

     The total energy is the sum of the following terms:

     one-electron contribution =    -702.88443213 Ry
     hartree contribution      =     350.74639196 Ry
     xc contribution           =     -30.73519670 Ry
     ewald contribution        =     268.46058250 Ry

     total energy              =    -114.40970339 Ry
     Harris-Foulkes estimate   =    -114.40970762 Ry
     estimated scf accuracy    <       0.00000152 Ry

     total magnetization       =     1.00 Bohr mag/cell
     absolute magnetization    =     1.66 Bohr mag/cell

     iteration # 37     ecut=   120.00 Ry     beta=0.70
     CG style diagonalization
     c_bands:  1 eigenvalues not converged
     c_bands:  1 eigenvalues not converged
     ethr =  4.11E-09,  avg # of iterations =  5.5
 
     Magnetic moment per site:
     atom:    1    charge:    0.8422    magn:    0.0023    constr:    0.0000
     atom:    2    charge:    0.8437    magn:    0.0022    constr:    0.0000
     atom:    3    charge:    0.8475    magn:   -0.0234    constr:    0.0000
     atom:    4    charge:    0.8407    magn:   -0.0032    constr:    0.0000
     atom:    5    charge:    0.8422    magn:   -0.0034    constr:    0.0000
     atom:    6    charge:    0.8476    magn:   -0.0235    constr:    0.0000
     atom:    7    charge:    0.4982    magn:    0.0002    constr:    0.0000
     atom:    8    charge:    0.4979    magn:    0.0002    constr:    0.0000
     atom:    9    charge:    0.4959    magn:    0.0008    constr:    0.0000
     atom:   10    charge:    0.4961    magn:    0.0002    constr:    0.0000
     atom:   11    charge:    0.4959    magn:    0.0002    constr:    0.0000
     atom:   12    charge:    0.4959    magn:    0.0008    constr:    0.0000
     atom:   13    charge:    5.8203    magn:    1.1476    constr:    0.0000

     total cpu time spent up to now is      495.7 secs

     The total energy is the sum of the following terms:

     one-electron contribution =    -702.88246319 Ry
     hartree contribution      =     350.74684787 Ry
     xc contribution           =     -30.73503812 Ry
     ewald contribution        =     268.46058250 Ry

     total energy              =    -114.40970515 Ry
     Harris-Foulkes estimate   =    -114.40970667 Ry
     estimated scf accuracy    <       0.00000045 Ry

     total magnetization       =     1.00 Bohr mag/cell
     absolute magnetization    =     1.66 Bohr mag/cell

     iteration # 38     ecut=   120.00 Ry     beta=0.70
     CG style diagonalization
     c_bands:  1 eigenvalues not converged
     ethr =  1.21E-09,  avg # of iterations =  5.0
 
     Magnetic moment per site:
     atom:    1    charge:    0.8422    magn:    0.0023    constr:    0.0000
     atom:    2    charge:    0.8436    magn:    0.0023    constr:    0.0000
     atom:    3    charge:    0.8476    magn:   -0.0236    constr:    0.0000
     atom:    4    charge:    0.8407    magn:   -0.0032    constr:    0.0000
     atom:    5    charge:    0.8421    magn:   -0.0032    constr:    0.0000
     atom:    6    charge:    0.8476    magn:   -0.0236    constr:    0.0000
     atom:    7    charge:    0.4982    magn:    0.0002    constr:    0.0000
     atom:    8    charge:    0.4979    magn:    0.0002    constr:    0.0000
     atom:    9    charge:    0.4959    magn:    0.0008    constr:    0.0000
     atom:   10    charge:    0.4961    magn:    0.0002    constr:    0.0000
     atom:   11    charge:    0.4959    magn:    0.0002    constr:    0.0000
     atom:   12    charge:    0.4959    magn:    0.0008    constr:    0.0000
     atom:   13    charge:    5.8203    magn:    1.1478    constr:    0.0000

     total cpu time spent up to now is      507.7 secs

     The total energy is the sum of the following terms:

     one-electron contribution =    -702.88162119 Ry
     hartree contribution      =     350.74715463 Ry
     xc contribution           =     -30.73517528 Ry
[...]
 
     Magnetic moment per site:
     atom:    1    charge:    0.8422    magn:    0.0024    constr:    0.0000
     atom:    2    charge:    0.8437    magn:    0.0024    constr:    0.0000
     atom:    3    charge:    0.8478    magn:   -0.0252    constr:    0.0000
     atom:    4    charge:    0.8407    magn:   -0.0035    constr:    0.0000
     atom:    5    charge:    0.8422    magn:   -0.0034    constr:    0.0000
     atom:    6    charge:    0.8478    magn:   -0.0252    constr:    0.0000
     atom:    7    charge:    0.4983    magn:    0.0002    constr:    0.0000
     atom:    8    charge:    0.4980    magn:    0.0002    constr:    0.0000
     atom:    9    charge:    0.4959    magn:    0.0008    constr:    0.0000
     atom:   10    charge:    0.4961    magn:    0.0002    constr:    0.0000
     atom:   11    charge:    0.4959    magn:    0.0002    constr:    0.0000
     atom:   12    charge:    0.4959    magn:    0.0008    constr:    0.0000
     atom:   13    charge:    5.8085    magn:    1.1678    constr:    0.0000

     total cpu time spent up to now is      990.6 secs

     The total energy is the sum of the following terms:

     one-electron contribution =    -703.03739716 Ry
     hartree contribution      =     350.76068537 Ry
     xc contribution           =     -30.73330124 Ry
     ewald contribution        =     268.46058250 Ry

     total energy              =    -114.54884205 Ry
     Harris-Foulkes estimate   =    -114.54884205 Ry
     estimated scf accuracy    <       0.00000010 Ry

     total magnetization       =     1.00 Bohr mag/cell
     absolute magnetization    =     1.70 Bohr mag/cell

     iteration #  4     ecut=   120.00 Ry     beta=0.70
     CG style diagonalization
     ethr =  2.70E-10,  avg # of iterations =  5.5
 
     Magnetic moment per site:
     atom:    1    charge:    0.8422    magn:    0.0024    constr:    0.0000
     atom:    2    charge:    0.8437    magn:    0.0024    constr:    0.0000
     atom:    3    charge:    0.8478    magn:   -0.0252    constr:    0.0000
     atom:    4    charge:    0.8407    magn:   -0.0034    constr:    0.0000
     atom:    5    charge:    0.8422    magn:   -0.0034    constr:    0.0000
     atom:    6    charge:    0.8478    magn:   -0.0252    constr:    0.0000
     atom:    7    charge:    0.4983    magn:    0.0002    constr:    0.0000
     atom:    8    charge:    0.4980    magn:    0.0002    constr:    0.0000
     atom:    9    charge:    0.4959    magn:    0.0008    constr:    0.0000
     atom:   10    charge:    0.4961    magn:    0.0002    constr:    0.0000
     atom:   11    charge:    0.4959    magn:    0.0002    constr:    0.0000
     atom:   12    charge:    0.4959    magn:    0.0008    constr:    0.0000
     atom:   13    charge:    5.8085    magn:    1.1678    constr:    0.0000

     total cpu time spent up to now is     1003.6 secs

     The total energy is the sum of the following terms:

     one-electron contribution =    -703.03952007 Ry
     hartree contribution      =     350.76131742 Ry
     xc contribution           =     -30.73335968 Ry
     ewald contribution        =     268.46058250 Ry

     total energy              =    -114.54884211 Ry
     Harris-Foulkes estimate   =    -114.54884211 Ry
     estimated scf accuracy    <       0.00000012 Ry

     total magnetization       =     1.00 Bohr mag/cell
     absolute magnetization    =     1.70 Bohr mag/cell

     iteration #  5     ecut=   120.00 Ry     beta=0.70
     CG style diagonalization
     ethr =  2.70E-10,  avg # of iterations =  3.0
 
     Magnetic moment per site:
     atom:    1    charge:    0.8422    magn:    0.0024    constr:    0.0000
     atom:    2    charge:    0.8437    magn:    0.0024    constr:    0.0000
     atom:    3    charge:    0.8479    magn:   -0.0252    constr:    0.0000
     atom:    4    charge:    0.8407    magn:   -0.0034    constr:    0.0000
     atom:    5    charge:    0.8422    magn:   -0.0034    constr:    0.0000
     atom:    6    charge:    0.8479    magn:   -0.0252    constr:    0.0000
     atom:    7    charge:    0.4983    magn:    0.0002    constr:    0.0000
     atom:    8    charge:    0.4980    magn:    0.0002    constr:    0.0000
     atom:    9    charge:    0.4959    magn:    0.0008    constr:    0.0000
     atom:   10    charge:    0.4961    magn:    0.0002    constr:    0.0000
     atom:   11    charge:    0.4959    magn:    0.0002    constr:    0.0000
     atom:   12    charge:    0.4959    magn:    0.0008    constr:    0.0000
     atom:   13    charge:    5.8083    magn:    1.1679    constr:    0.0000

     total cpu time spent up to now is     1011.3 secs

     End of self-consistent calculation

 ------ SPIN UP ------------


          k = 0.0000 0.0000 0.0000 (****** PWs)   bands (ev):

   -25.4081 -22.7126 -22.5986 -19.5206 -19.1569 -19.0558 -17.2693 -15.6126
   -15.1555 -14.6498 -14.5397 -13.2957 -12.6180 -12.5878 -10.7011 -10.5125
    -7.9962  -6.9297  -6.4306  -5.6214  -5.4025  -5.3377  -4.9226  -4.9170
    -4.3806  -4.3684  -4.3133  -3.7267  -3.7005  -3.6017  -3.4894  -3.2555
    -3.1371  -2.9179  -2.8991  -2.7531  -2.7420  -2.5907  -2.5833  -2.3870

     occupation numbers 
     1.0000   1.0000   1.0000   1.0000   1.0000   1.0000   1.0000   1.0000
     1.0000   1.0000   1.0000   1.0000   1.0000   1.0000   1.0000   1.0000
     1.0000   1.0000   1.0000   0.0000   0.0000   0.0000   0.0000   0.0000
     0.0000   0.0000   0.0000   0.0000   0.0000   0.0000   0.0000   0.0000
     0.0000   0.0000   0.0000   0.0000   0.0000   0.0000   0.0000   0.0000

 ------ SPIN DOWN ----------


          k = 0.0000 0.0000 0.0000 (****** PWs)   bands (ev):

   -25.4520 -22.7353 -22.6805 -19.1624 -19.1448 -17.9093 -17.2863 -15.6506
   -15.1763 -14.6528 -14.5650 -13.4109 -12.6326 -12.6061 -10.7417 -10.7377
    -6.0762  -5.9629  -5.7713  -5.5472  -5.4107  -5.1893  -4.9970  -4.9663
    -4.4675  -4.4637  -4.4341  -3.8363  -3.8287  -3.7017  -3.5919  -3.3463
    -3.2125  -3.0368  -3.0256  -2.8182  -2.7990  -2.6880  -2.6819  -2.4847

     occupation numbers 
     1.0000   1.0000   1.0000   1.0000   1.0000   1.0000   1.0000   1.0000
     1.0000   1.0000   1.0000   1.0000   1.0000   1.0000   1.0000   1.0000
     1.0000   1.0000   0.0000   0.0000   0.0000   0.0000   0.0000   0.0000
     0.0000   0.0000   0.0000   0.0000   0.0000   0.0000   0.0000   0.0000
     0.0000   0.0000   0.0000   0.0000   0.0000   0.0000   0.0000   0.0000

     highest occupied, lowest unoccupied level (ev):    -5.9629   -5.7713

     The total energy is the sum of the following terms:

     one-electron contribution =    -703.03856594 Ry
     hartree contribution      =     350.76253503 Ry
     xc contribution           =     -30.73339371 Ry
     ewald contribution        =     268.46058250 Ry

!    total energy              =    -114.54884212 Ry
     Harris-Foulkes estimate   =    -114.54884212 Ry
     estimated scf accuracy    <       0.00000006 Ry

     The total energy is the sum of the following terms:

     one-electron contribution =    -703.03856594 Ry
     hartree contribution      =     350.76253503 Ry
     xc contribution           =     -30.73339371 Ry
     ewald contribution        =     268.46058250 Ry

     total magnetization       =     1.00 Bohr mag/cell
     absolute magnetization    =     1.70 Bohr mag/cell

     convergence has been achieved in   5 iterations
 
     Using Hirshfeld
        Amplitude [Ry a.u.] : -3.9358E-01
        Acceptor Fragment start :          13
        Acceptor Fragment end   :          13
        Donor Fragment start :           1
        Donor Fragment end   :          12
 
 
     Using Hirshfeld
        Amplitude [Ry a.u.] : -3.9358E-01
        Acceptor Fragment start :          13
        Acceptor Fragment end   :          13
        Donor Fragment start :           1
        Donor Fragment end   :          12
 
     E field correction              :  0.9446112631316042E+01 Ry    
 
     Donor charge                    :     -0.3488909683734214 e     
     Acceptor charge                 :      0.6515096607783413 e     
     Difference of charges           :     -1.0004006291517520 e     
 
     epcdft_thr                      :  0.1000000000000000E-03 e     
     Surplus(+)/deficit(-) charge    : -0.4006291517519855E-03 e     
 
     -----------------------------------------------
 
                      SCF converged but...
 
     electron localization condition NOT satisfied
     restarting scf with different applied potential
 
     New field Amp                   : -0.3935357994210378E+00 Ry    
     charge density from previous step
 
     Using Hirshfeld
        Amplitude [Ry a.u.] : -3.9354E-01
        Acceptor Fragment start :          13
        Acceptor Fragment end   :          13
        Donor Fragment start :           1
        Donor Fragment end   :          12
 

     total cpu time spent up to now is     1036.9 secs

     per-process dynamical memory:    81.9 Mb

     Self-consistent Calculation

     iteration #  1     ecut=   120.00 Ry     beta=0.70
     CG style diagonalization
     c_bands:  1 eigenvalues not converged
     ethr =  2.70E-10,  avg # of iterations =  5.7
 
     Magnetic moment per site:
     atom:    1    charge:    0.8422    magn:    0.0024    constr:    0.0000
     atom:    2    charge:    0.8437    magn:    0.0024    constr:    0.0000
     atom:    3    charge:    0.8477    magn:   -0.0251    constr:    0.0000
     atom:    4    charge:    0.8406    magn:   -0.0034    constr:    0.0000
     atom:    5    charge:    0.8421    magn:   -0.0034    constr:    0.0000
     atom:    6    charge:    0.8477    magn:   -0.0251    constr:    0.0000
     atom:    7    charge:    0.4983    magn:    0.0002    constr:    0.0000
     atom:    8    charge:    0.4980    magn:    0.0002    constr:    0.0000
     atom:    9    charge:    0.4959    magn:    0.0008    constr:    0.0000
     atom:   10    charge:    0.4962    magn:    0.0002    constr:    0.0000
     atom:   11    charge:    0.4959    magn:    0.0002    constr:    0.0000
     atom:   12    charge:    0.4959    magn:    0.0008    constr:    0.0000
     atom:   13    charge:    5.8105    magn:    1.1662    constr:    0.0000

     total cpu time spent up to now is     1052.5 secs

     The total energy is the sum of the following terms:

     one-electron contribution =    -703.02690460 Ry
     hartree contribution      =     350.75529389 Ry
     xc contribution           =     -30.73354605 Ry
     ewald contribution        =     268.46058250 Ry

     total energy              =    -114.54774165 Ry
     Harris-Foulkes estimate   =    -114.54774689 Ry
     estimated scf accuracy    <       0.00000711 Ry

     total magnetization       =     1.00 Bohr mag/cell
     absolute magnetization    =     1.70 Bohr mag/cell

     iteration #  2     ecut=   120.00 Ry     beta=0.70
     CG style diagonalization
     ethr =  1.92E-08,  avg # of iterations =  4.2
 
     Magnetic moment per site:
     atom:    1    charge:    0.8422    magn:    0.0024    constr:    0.0000
     atom:    2    charge:    0.8437    magn:    0.0024    constr:    0.0000
     atom:    3    charge:    0.8478    magn:   -0.0252    constr:    0.0000
     atom:    4    charge:    0.8407    magn:   -0.0034    constr:    0.0000
     atom:    5    charge:    0.8422    magn:   -0.0034    constr:    0.0000
     atom:    6    charge:    0.8478    magn:   -0.0252    constr:    0.0000
     atom:    7    charge:    0.4983    magn:    0.0002    constr:    0.0000
     atom:    8    charge:    0.4980    magn:    0.0002    constr:    0.0000
     atom:    9    charge:    0.4959    magn:    0.0008    constr:    0.0000
     atom:   10    charge:    0.4961    magn:    0.0002    constr:    0.0000
     atom:   11    charge:    0.4959    magn:    0.0002    constr:    0.0000
     atom:   12    charge:    0.4959    magn:    0.0008    constr:    0.0000
     atom:   13    charge:    5.8086    magn:    1.1677    constr:    0.0000

     total cpu time spent up to now is     1062.8 secs

     The total energy is the sum of the following terms:

     one-electron contribution =    -703.10171018 Ry
     hartree contribution      =     350.76118135 Ry
     xc contribution           =     -30.73336550 Ry
     ewald contribution        =     268.46058250 Ry

     total energy              =    -114.54772240 Ry
     Harris-Foulkes estimate   =    -114.54777264 Ry
     estimated scf accuracy    <       0.00037366 Ry

     total magnetization       =     1.00 Bohr mag/cell
     absolute magnetization    =     1.74 Bohr mag/cell

     iteration #  3     ecut=   120.00 Ry     beta=0.70
     CG style diagonalization
     ethr =  1.92E-08,  avg # of iterations =  4.0
 
     Magnetic moment per site:
     atom:    1    charge:    0.8422    magn:    0.0024    constr:    0.0000
     atom:    2    charge:    0.8437    magn:    0.0023    constr:    0.0000
     atom:    3    charge:    0.8479    magn:   -0.0252    constr:    0.0000
     atom:    4    charge:    0.8407    magn:   -0.0034    constr:    0.0000
     atom:    5    charge:    0.8422    magn:   -0.0034    constr:    0.0000
     atom:    6    charge:    0.8479    magn:   -0.0252    constr:    0.0000
     atom:    7    charge:    0.4983    magn:    0.0002    constr:    0.0000
     atom:    8    charge:    0.4980    magn:    0.0002    constr:    0.0000
     atom:    9    charge:    0.4959    magn:    0.0008    constr:    0.0000
     atom:   10    charge:    0.4961    magn:    0.0002    constr:    0.0000
     atom:   11    charge:    0.4959    magn:    0.0002    constr:    0.0000
     atom:   12    charge:    0.4959    magn:    0.0008    constr:    0.0000
     atom:   13    charge:    5.8085    magn:    1.1677    constr:    0.0000

     total cpu time spent up to now is     1072.5 secs

     End of self-consistent calculation

 ------ SPIN UP ------------


          k = 0.0000 0.0000 0.0000 (****** PWs)   bands (ev):

   -25.4077 -22.7122 -22.5983 -19.5205 -19.1565 -19.0554 -17.2688 -15.6121
   -15.1551 -14.6493 -14.5394 -13.2953 -12.6176 -12.5874 -10.7006 -10.5122
    -7.9962  -6.9296  -6.4306  -5.6210  -5.4021  -5.3372  -4.9222  -4.9164
    -4.3801  -4.3679  -4.3128  -3.7262  -3.7001  -3.6012  -3.4889  -3.2551
    -3.1366  -2.9174  -2.8986  -2.7526  -2.7415  -2.5902  -2.5828  -2.3866

     occupation numbers 
     1.0000   1.0000   1.0000   1.0000   1.0000   1.0000   1.0000   1.0000
     1.0000   1.0000   1.0000   1.0000   1.0000   1.0000   1.0000   1.0000
     1.0000   1.0000   1.0000   0.0000   0.0000   0.0000   0.0000   0.0000
     0.0000   0.0000   0.0000   0.0000   0.0000   0.0000   0.0000   0.0000
     0.0000   0.0000   0.0000   0.0000   0.0000   0.0000   0.0000   0.0000

 ------ SPIN DOWN ----------


          k = 0.0000 0.0000 0.0000 (****** PWs)   bands (ev):

   -25.4516 -22.7349 -22.6801 -19.1620 -19.1443 -17.9093 -17.2858 -15.6501
   -15.1759 -14.6523 -14.5646 -13.4105 -12.6322 -12.6057 -10.7412 -10.7374
    -6.0761  -5.9630  -5.7709  -5.5468  -5.4101  -5.1891  -4.9963  -4.9658
    -4.4668  -4.4630  -4.4334  -3.8356  -3.8280  -3.7010  -3.5912  -3.3456
    -3.2118  -3.0361  -3.0249  -2.8175  -2.7983  -2.6872  -2.6811  -2.4841

     occupation numbers 
     1.0000   1.0000   1.0000   1.0000   1.0000   1.0000   1.0000   1.0000
     1.0000   1.0000   1.0000   1.0000   1.0000   1.0000   1.0000   1.0000
     1.0000   1.0000   0.0000   0.0000   0.0000   0.0000   0.0000   0.0000
     0.0000   0.0000   0.0000   0.0000   0.0000   0.0000   0.0000   0.0000
     0.0000   0.0000   0.0000   0.0000   0.0000   0.0000   0.0000   0.0000

     highest occupied, lowest unoccupied level (ev):    -5.9630   -5.7709

     The total energy is the sum of the following terms:

     one-electron contribution =    -703.03843580 Ry
     hartree contribution      =     350.76364828 Ry
     xc contribution           =     -30.73354140 Ry
     ewald contribution        =     268.46058250 Ry

!    total energy              =    -114.54774642 Ry
     Harris-Foulkes estimate   =    -114.54774641 Ry
     estimated scf accuracy    <       0.00000009 Ry

     The total energy is the sum of the following terms:

     one-electron contribution =    -703.03843580 Ry
     hartree contribution      =     350.76364828 Ry
     xc contribution           =     -30.73354140 Ry
     ewald contribution        =     268.46058250 Ry

     total magnetization       =     1.00 Bohr mag/cell
     absolute magnetization    =     1.70 Bohr mag/cell

     convergence has been achieved in   3 iterations
 
     Using Hirshfeld
        Amplitude [Ry a.u.] : -3.9354E-01
        Acceptor Fragment start :          13
        Acceptor Fragment end   :          13
        Donor Fragment start :           1
        Donor Fragment end   :          12
 
 
     Using Hirshfeld
        Amplitude [Ry a.u.] : -3.9354E-01
        Acceptor Fragment start :          13
        Acceptor Fragment end   :          13
        Donor Fragment start :           1
        Donor Fragment end   :          12
 
     E field correction              :  0.9444825066277090E+01 Ry    
 
     Donor charge                    :     -0.3486436129705091 e     
     Acceptor charge                 :      0.6512696863331922 e     
     Difference of charges           :     -0.9999132993037030 e     

     Writing output data file right.save
 
     init_run     :     73.12s CPU     73.12s WALL (       1 calls)
     electrons    :    899.69s CPU    899.69s WALL (       7 calls)
     update_pot   :      7.32s CPU      7.32s WALL (       6 calls)

     Called by init_run:
     wfcinit      :      9.13s CPU      9.13s WALL (       1 calls)
     potinit      :      3.00s CPU      3.00s WALL (       1 calls)

     Called by electrons:
     c_bands      :    663.02s CPU    663.02s WALL (      74 calls)
     sum_band     :     42.62s CPU     42.62s WALL (      74 calls)
     v_of_rho     :     92.76s CPU     92.76s WALL (      81 calls)
     v_h          :      1.80s CPU      1.80s WALL (      81 calls)
     v_xc         :     90.95s CPU     90.95s WALL (      81 calls)
     mix_rho      :      5.32s CPU      5.32s WALL (      74 calls)

     Called by c_bands:
     init_us_2    :      2.94s CPU      2.94s WALL (     298 calls)
     rcgdiagg     :    572.03s CPU    572.03s WALL (     149 calls)
     wfcrot       :     90.76s CPU     90.76s WALL (     137 calls)

     Called by sum_band:

     Called by *cgdiagg:
     h_psi        :    572.58s CPU    572.58s WALL (   21775 calls)
     rdiaghg      :      9.72s CPU      9.72s WALL (     137 calls)
     rdiaghg:chol :      0.77s CPU      0.77s WALL (     137 calls)
     rdiaghg:inve :      0.13s CPU      0.13s WALL (     137 calls)
     rdiaghg:para :      0.74s CPU      0.74s WALL (     274 calls)

     Called by h_psi:
     h_psi:vloc   :    476.64s CPU    476.64s WALL (   21775 calls)
     h_psi:vnl    :     95.18s CPU     95.18s WALL (   21775 calls)
     add_vuspsi   :     59.97s CPU     59.99s WALL (   21775 calls)

     General routines
     calbec       :     46.18s CPU     46.24s WALL (   43413 calls)
     fft          :     96.18s CPU     96.18s WALL (    6043 calls)
     fftw         :    450.05s CPU    450.07s WALL (   52052 calls)
 
     Parallel routines
     fft_scatter  :    227.34s CPU    227.39s WALL (   58095 calls)
 
     PWSCF        : 19m34.50s CPU    19m34.50s WALL

 
   This run was terminated on:  13:48:51  20Aug2015            

=------------------------------------------------------------------------------=
   JOB DONE.
=------------------------------------------------------------------------------=
2015-08-20 13:49:08.930 (INFO ) [0xfffb0c5c410] CET-20400-31731-128:1292123:ibm.runjob.client.Job: exited with status 0
2015-08-20 13:49:08.930 (INFO ) [0xfffb0c5c410] tatu.runjob.client: task exited with status 0
2015-08-20 13:49:08.930 (INFO ) [0xfff95f034e0] 22775:tatu.runjob.monitor: monitor terminating
2015-08-20 13:49:08.934 (INFO ) [0xfffb0c5c410] tatu.runjob.client: monitor completed
