2015-08-20 11:21:43.886 (INFO ) [0xfffa579c410] ibm.runjob.AbstractOptions: using properties file /bgsys/local/etc/bg.properties
2015-08-20 11:21:43.891 (INFO ) [0xfffa579c410] ibm.runjob.AbstractOptions: max open file descriptors: 65536
2015-08-20 11:21:43.891 (INFO ) [0xfffa579c410] ibm.runjob.AbstractOptions: core file limit: 18446744073709551615
2015-08-20 11:21:43.892 (INFO ) [0xfffa579c410] 30324:tatu.runjob.client: scheduler job id is 564843
2015-08-20 11:21:43.898 (INFO ) [0xfff897234e0] 30324:tatu.runjob.monitor: monitor started
2015-08-20 11:21:47.769 (INFO ) [0xfff897234e0] 30324:tatu.runjob.monitor: task record 1233172 created
2015-08-20 11:21:47.770 (INFO ) [0xfffa579c410] CET-42440-53771-128:30324:ibm.runjob.client.options.Parser: set local socket to runjob_mux from properties file
2015-08-20 11:21:50.127 (INFO ) [0xfffa579c410] CET-42440-53771-128:1291964:ibm.runjob.client.Job: job 1291964 started

     Program PWSCF v.5.1.1 starts on 20Aug2015 at 11:21:50 

     This program is part of the open-source Quantum ESPRESSO suite
     for quantum simulation of materials; please cite
         "P. Giannozzi et al., J. Phys.:Condens. Matter 21 395502 (2009);
          URL http://www.quantum-espresso.org", 
     in publications or presentations arising from this work. More details at
     http://www.quantum-espresso.org/quote

     Parallel version (MPI & OpenMP), running on     512 processor cores
     Number of MPI processes:               512
     Threads/MPI process:                     1
     R & G space division:  proc/nbgrp/npool/nimage =     512
     Waiting for input...
     Reading input from standard input

     Current dimensions of program PWSCF are:
     Max number of different atomic species (ntypx) = 10
     Max number of k-points (npk) =  40000
     Max angular momentum in pseudopotentials (lmaxx) =  3
               file C.pbe-mt_fhi.UPF: wavefunction(s)  4f renormalized
               file H.pbe-mt_fhi.UPF: wavefunction(s)  2p 4f renormalized
               file Cl.pbe-mt_fhi.UPF: wavefunction(s)  4f renormalized

     gamma-point specific algorithms are used
     Message from routine setup:
     the system is metallic, specify occupations

     Subspace diagonalization in iterative solution of the eigenvalue problem:
     scalapack distributed-memory algorithm (size of sub-group: 16* 16 procs)

 
     Parallelization info
     --------------------
     sticks:   dense  smooth     PW     G-vecs:    dense   smooth      PW
     Min          50      50     11                 6210     6210     764
     Max          52      52     14                 6248     6248     802
     Sum       26221   26221   6557              3188619  3188619  398687
     Tot       13111   13111   3279
 
     Generating pointlists ...
     new r_m :   0.0279 (alat units)  0.8450 (a.u.) for type    1
     new r_m :   0.0279 (alat units)  0.8450 (a.u.) for type    2
     new r_m :   0.0794 (alat units)  2.4011 (a.u.) for type    3


     bravais-lattice index     =            1
     lattice parameter (alat)  =      30.2356  a.u.
     unit-cell volume          =   27641.1785 (a.u.)^3
     number of atoms/cell      =           13
     number of atomic types    =            3
     number of electrons       =        37.00 (up:  19.00, down:  18.00)
     number of Kohn-Sham states=           40
     kinetic-energy cutoff     =      90.0000  Ry
     charge density cutoff     =     360.0000  Ry
     convergence threshold     =      1.0E-07
     mixing beta               =       0.7000
     number of iterations used =            8  plain     mixing
     Exchange-correlation      = PBE ( 1  4  3  4 0 0)
     Assuming isolated system, Martyna-Tuckerman method


     celldm(1)=  30.235618  celldm(2)=   0.000000  celldm(3)=   0.000000
     celldm(4)=   0.000000  celldm(5)=   0.000000  celldm(6)=   0.000000

     crystal axes: (cart. coord. in units of alat)
               a(1) = (   1.000000   0.000000   0.000000 )  
               a(2) = (   0.000000   1.000000   0.000000 )  
               a(3) = (   0.000000   0.000000   1.000000 )  

     reciprocal axes: (cart. coord. in units 2 pi/alat)
               b(1) = (  1.000000  0.000000  0.000000 )  
               b(2) = (  0.000000  1.000000  0.000000 )  
               b(3) = (  0.000000  0.000000  1.000000 )  


     PseudoPot. # 1 for  C read from file:
     ./C.pbe-mt_fhi.UPF
     MD5 check sum: 058ca341f9d6d5327d9962fd88a91b65
     Pseudo is Norm-conserving, Zval =  4.0
     Generated using FHI98PP, converted with fhi2upf.x v.5.0.2
     Using radial grid of  461 points,  3 beta functions with: 
                l(1) =   0
                l(2) =   1
                l(3) =   3

     PseudoPot. # 2 for  H read from file:
     ./H.pbe-mt_fhi.UPF
     MD5 check sum: a19bd5488733b3d98581df861506e80d
     Pseudo is Norm-conserving, Zval =  1.0
     Generated using FHI98PP, converted with fhi2upf.x v.5.0.2
     Using radial grid of  387 points,  3 beta functions with: 
                l(1) =   0
                l(2) =   1
                l(3) =   3

     PseudoPot. # 3 for Cl read from file:
     ./Cl.pbe-mt_fhi.UPF
     MD5 check sum: 2690b95bbfe21454a1a3af22474751ef
     Pseudo is Norm-conserving, Zval =  7.0
     Generated using FHI98PP, converted with fhi2upf.x v.5.0.2
     Using radial grid of  503 points,  3 beta functions with: 
                l(1) =   0
                l(2) =   1
                l(3) =   3

     atomic species   valence    mass     pseudopotential
        C              4.00    12.01070      C( 1.00)
        H              1.00     1.00794      H( 1.00)
        Cl             7.00     1.00000     Cl( 1.00)

     Starting magnetic structure 
     atomic species   magnetization
        C            0.000
        H            0.000
        Cl           0.000

     No symmetry found


                                    s                        frac. trans.

      isym =  1     identity                                     

 cryst.   s( 1) = (     1          0          0      )
                  (     0          1          0      )
                  (     0          0          1      )

 cart.    s( 1) = (  1.0000000  0.0000000  0.0000000 )
                  (  0.0000000  1.0000000  0.0000000 )
                  (  0.0000000  0.0000000  1.0000000 )


     point group C_1 (1)    
     there are  1 classes
     the character table:

       E    
A      1.00

     the symmetry operations in each class:
     E        1

   Cartesian axes

     site n.     atom                  positions (alat units)
         1           C   tau(   1) = (   0.0000000   0.0873125   0.0000000  )
         2           C   tau(   2) = (   0.0756125   0.0436563   0.0000000  )
         3           C   tau(   3) = (   0.0756125  -0.0436563   0.0000000  )
         4           C   tau(   4) = (   0.0000000  -0.0873125   0.0000000  )
         5           C   tau(   5) = (  -0.0756125  -0.0436563   0.0000000  )
         6           C   tau(   6) = (  -0.0756125   0.0436563   0.0000000  )
         7           H   tau(   7) = (   0.0000000   0.1550625   0.0000000  )
         8           H   tau(   8) = (   0.1342875   0.0775312   0.0000000  )
         9           H   tau(   9) = (   0.1342875  -0.0775312   0.0000000  )
        10           H   tau(  10) = (   0.0000000  -0.1550625   0.0000000  )
        11           H   tau(  11) = (  -0.1342875  -0.0775312   0.0000000  )
        12           H   tau(  12) = (  -0.1342875   0.0775312   0.0000000  )
        13           Cl  tau(  13) = (   0.0378063   0.0654844   0.1875000  )

   Crystallographic axes

     site n.     atom                  positions (cryst. coord.)
         1           C   tau(   1) = (  0.0000000  0.0873125  0.0000000  )
         2           C   tau(   2) = (  0.0756125  0.0436563  0.0000000  )
         3           C   tau(   3) = (  0.0756125 -0.0436563  0.0000000  )
         4           C   tau(   4) = (  0.0000000 -0.0873125  0.0000000  )
         5           C   tau(   5) = ( -0.0756125 -0.0436563  0.0000000  )
         6           C   tau(   6) = ( -0.0756125  0.0436563  0.0000000  )
         7           H   tau(   7) = (  0.0000000  0.1550625  0.0000000  )
         8           H   tau(   8) = (  0.1342875  0.0775312  0.0000000  )
         9           H   tau(   9) = (  0.1342875 -0.0775312  0.0000000  )
        10           H   tau(  10) = (  0.0000000 -0.1550625  0.0000000  )
        11           H   tau(  11) = ( -0.1342875 -0.0775312  0.0000000  )
        12           H   tau(  12) = ( -0.1342875  0.0775312  0.0000000  )
        13           Cl  tau(  13) = (  0.0378063  0.0654844  0.1875000  )

     number of k points=     2
                       cart. coord. in units 2pi/alat
        k(    1) = (   0.0000000   0.0000000   0.0000000), wk =   1.0000000
        k(    2) = (   0.0000000   0.0000000   0.0000000), wk =   1.0000000

                       cryst. coord.
        k(    1) = (   0.0000000   0.0000000   0.0000000), wk =   1.0000000
        k(    2) = (   0.0000000   0.0000000   0.0000000), wk =   1.0000000

     Dense  grid:  1594310 G-vectors     FFT dimensions: ( 192, 192, 192)

     Largest allocated arrays     est. size (Mb)     dimensions
        Kohn-Sham Wavefunctions         0.24 Mb     (     397,   40)
        NL pseudopotentials             0.87 Mb     (     397,  143)
        Each V/rho on FFT grid          1.12 Mb     (   36864,   2)
        Each G-vector array             0.02 Mb     (    3124)
        G-vector shells                 0.01 Mb     (    1374)
     Largest temporary arrays     est. size (Mb)     dimensions
        Each subspace H/S matrix        0.00 Mb     (       2,    2)
        Each <psi_i|beta_j> matrix      0.04 Mb     (     143,   40)
        Arrays for rho mixing           4.50 Mb     (   36864,    8)
2015-08-20 11:21:57.596 (INFO ) [0xfff897234e0] 30324:tatu.runjob.monitor: tracklib completed
 
     Using Hirshfeld
        Amplitude [Ry a.u.] : -3.8817E-01
        Acceptor Fragment start :          13
        Acceptor Fragment end   :          13
        Donor Fragment start :           1
        Donor Fragment end   :          12
 

     Initial potential from superposition of free atoms
     Check: negative starting charge=(component1):   -0.000669
     Check: negative starting charge=(component2):   -0.000669

     starting charge   36.99968, renormalised to   37.00000

     negative rho (up, down):  6.691E-04 6.691E-04
     Starting wfc are  208 randomized atomic wfcs

     total cpu time spent up to now is       14.5 secs

     per-process dynamical memory:    53.0 Mb

     Self-consistent Calculation

     iteration #  1     ecut=    90.00 Ry     beta=0.70
     CG style diagonalization
     ethr =  1.00E-02,  avg # of iterations =  4.1

     negative rho (up, down):  1.259E-04 1.302E-04
 
     Magnetic moment per site:
     atom:    1    charge:    1.0227    magn:    0.0313    constr:    0.0000
     atom:    2    charge:    1.0238    magn:    0.0315    constr:    0.0000
     atom:    3    charge:    1.0218    magn:    0.0307    constr:    0.0000
     atom:    4    charge:    1.0202    magn:    0.0302    constr:    0.0000
     atom:    5    charge:    1.0210    magn:    0.0302    constr:    0.0000
     atom:    6    charge:    1.0221    magn:    0.0307    constr:    0.0000
     atom:    7    charge:    0.4446    magn:    0.0013    constr:    0.0000
     atom:    8    charge:    0.4447    magn:    0.0012    constr:    0.0000
     atom:    9    charge:    0.4443    magn:    0.0012    constr:    0.0000
     atom:   10    charge:    0.4444    magn:    0.0010    constr:    0.0000
     atom:   11    charge:    0.4443    magn:    0.0010    constr:    0.0000
     atom:   12    charge:    0.4443    magn:    0.0012    constr:    0.0000
     atom:   13    charge:    3.1677    magn:    0.0007    constr:    0.0000

     total cpu time spent up to now is       19.2 secs

     The total energy is the sum of the following terms:

     one-electron contribution =    -729.31297822 Ry
     hartree contribution      =     372.44737749 Ry
     xc contribution           =     -31.49380141 Ry
     ewald contribution        =     268.46058250 Ry

     total energy              =    -103.23181980 Ry
     Harris-Foulkes estimate   =    -117.33345251 Ry
     estimated scf accuracy    <      16.68640070 Ry

     total magnetization       =     1.00 Bohr mag/cell
     absolute magnetization    =     1.00 Bohr mag/cell

     iteration #  2     ecut=    90.00 Ry     beta=0.70
     CG style diagonalization
     ethr =  1.00E-02,  avg # of iterations =  9.7

     negative rho (up, down):  1.635E-05 2.878E-05
 
     Magnetic moment per site:
     atom:    1    charge:    0.8958    magn:    0.0293    constr:    0.0000
     atom:    2    charge:    0.8963    magn:    0.0287    constr:    0.0000
     atom:    3    charge:    0.8892    magn:    0.0268    constr:    0.0000
     atom:    4    charge:    0.8855    magn:    0.0260    constr:    0.0000
     atom:    5    charge:    0.8861    magn:    0.0261    constr:    0.0000
     atom:    6    charge:    0.8894    magn:    0.0273    constr:    0.0000
     atom:    7    charge:    0.4422    magn:    0.0052    constr:    0.0000
     atom:    8    charge:    0.4406    magn:    0.0049    constr:    0.0000
     atom:    9    charge:    0.4336    magn:    0.0020    constr:    0.0000
     atom:   10    charge:    0.4309    magn:    0.0013    constr:    0.0000
     atom:   11    charge:    0.4311    magn:    0.0016    constr:    0.0000
     atom:   12    charge:    0.4338    magn:    0.0024    constr:    0.0000
     atom:   13    charge:    5.4195    magn:    0.0171    constr:    0.0000

     total cpu time spent up to now is       26.3 secs

     The total energy is the sum of the following terms:

     one-electron contribution =    -563.78444171 Ry
     hartree contribution      =     346.39492574 Ry
     xc contribution           =     -30.19866760 Ry
     ewald contribution        =     268.46058250 Ry

     total energy              =     -87.26545330 Ry
     Harris-Foulkes estimate   =    -140.57443781 Ry
     estimated scf accuracy    <     193.91634939 Ry

     total magnetization       =     1.00 Bohr mag/cell
     absolute magnetization    =     1.93 Bohr mag/cell

     iteration #  3     ecut=    90.00 Ry     beta=0.70
     CG style diagonalization
     ethr =  1.00E-02,  avg # of iterations =  9.3

     negative rho (up, down):  6.731E-06 4.551E-06
 
     Magnetic moment per site:
     atom:    1    charge:    0.8670    magn:    0.0367    constr:    0.0000
     atom:    2    charge:    0.8768    magn:    0.0259    constr:    0.0000
     atom:    3    charge:    0.8710    magn:    0.0315    constr:    0.0000
     atom:    4    charge:    0.8690    magn:    0.0289    constr:    0.0000
     atom:    5    charge:    0.8782    magn:    0.0213    constr:    0.0000
     atom:    6    charge:    0.8677    magn:    0.0377    constr:    0.0000
     atom:    7    charge:    0.4617    magn:    0.0049    constr:    0.0000
     atom:    8    charge:    0.4602    magn:    0.0045    constr:    0.0000
     atom:    9    charge:    0.4572    magn:    0.0014    constr:    0.0000
     atom:   10    charge:    0.4568    magn:    0.0014    constr:    0.0000
     atom:   11    charge:    0.4571    magn:    0.0029    constr:    0.0000
     atom:   12    charge:    0.4578    magn:    0.0018    constr:    0.0000
     atom:   13    charge:    5.5922    magn:    0.2372    constr:    0.0000

     total cpu time spent up to now is       33.2 secs

     The total energy is the sum of the following terms:

     one-electron contribution =    -692.03736238 Ry
     hartree contribution      =     346.01247169 Ry
     xc contribution           =     -30.25798172 Ry
     ewald contribution        =     268.46058250 Ry

     total energy              =    -113.81296252 Ry
     Harris-Foulkes estimate   =    -113.97320680 Ry
     estimated scf accuracy    <       0.95669536 Ry

     total magnetization       =     1.00 Bohr mag/cell
     absolute magnetization    =     2.90 Bohr mag/cell

     iteration #  4     ecut=    90.00 Ry     beta=0.70
     CG style diagonalization
     ethr =  2.59E-03,  avg # of iterations =  3.9

     negative rho (up, down):  5.630E-06 4.251E-06
 
     Magnetic moment per site:
     atom:    1    charge:    0.8681    magn:    0.0263    constr:    0.0000
     atom:    2    charge:    0.8697    magn:    0.0196    constr:    0.0000
     atom:    3    charge:    0.8678    magn:    0.0227    constr:    0.0000
     atom:    4    charge:    0.8630    magn:    0.0214    constr:    0.0000
     atom:    5    charge:    0.8661    magn:    0.0162    constr:    0.0000
     atom:    6    charge:    0.8690    magn:    0.0273    constr:    0.0000
     atom:    7    charge:    0.4700    magn:    0.0037    constr:    0.0000
     atom:    8    charge:    0.4689    magn:    0.0033    constr:    0.0000
     atom:    9    charge:    0.4668    magn:    0.0006    constr:    0.0000
     atom:   10    charge:    0.4669    magn:    0.0008    constr:    0.0000
     atom:   11    charge:    0.4675    magn:    0.0024    constr:    0.0000
     atom:   12    charge:    0.4677    magn:    0.0007    constr:    0.0000
     atom:   13    charge:    5.6894    magn:    0.3889    constr:    0.0000

     total cpu time spent up to now is       36.7 secs

     The total energy is the sum of the following terms:

     one-electron contribution =    -703.99648890 Ry
     hartree contribution      =     348.25915388 Ry
     xc contribution           =     -30.45613707 Ry
     ewald contribution        =     268.46058250 Ry

     total energy              =    -114.39559914 Ry
     Harris-Foulkes estimate   =    -114.44665510 Ry
     estimated scf accuracy    <       0.29018400 Ry

     total magnetization       =     1.00 Bohr mag/cell
     absolute magnetization    =     1.10 Bohr mag/cell

     iteration #  5     ecut=    90.00 Ry     beta=0.70
     CG style diagonalization
     ethr =  7.84E-04,  avg # of iterations =  3.7

     negative rho (up, down):  5.195E-06 6.212E-06
 
     Magnetic moment per site:
     atom:    1    charge:    0.8584    magn:    0.0127    constr:    0.0000
     atom:    2    charge:    0.8559    magn:    0.0108    constr:    0.0000
     atom:    3    charge:    0.8600    magn:    0.0109    constr:    0.0000
     atom:    4    charge:    0.8585    magn:    0.0122    constr:    0.0000
     atom:    5    charge:    0.8548    magn:    0.0086    constr:    0.0000
     atom:    6    charge:    0.8588    magn:    0.0139    constr:    0.0000
     atom:    7    charge:    0.4826    magn:    0.0015    constr:    0.0000
     atom:    8    charge:    0.4826    magn:    0.0012    constr:    0.0000
     atom:    9    charge:    0.4809    magn:   -0.0003    constr:    0.0000
     atom:   10    charge:    0.4809    magn:   -0.0001    constr:    0.0000
     atom:   11    charge:    0.4820    magn:    0.0011    constr:    0.0000
     atom:   12    charge:    0.4812    magn:   -0.0004    constr:    0.0000
     atom:   13    charge:    5.7776    magn:    0.5886    constr:    0.0000

     total cpu time spent up to now is       40.1 secs

     The total energy is the sum of the following terms:

     one-electron contribution =    -702.94097742 Ry
     hartree contribution      =     350.16945934 Ry
     xc contribution           =     -30.63603293 Ry
     ewald contribution        =     268.46058250 Ry

     total energy              =    -114.39909726 Ry
     Harris-Foulkes estimate   =    -114.41446118 Ry
     estimated scf accuracy    <       0.13634265 Ry

     total magnetization       =     1.00 Bohr mag/cell
     absolute magnetization    =     1.09 Bohr mag/cell

     iteration #  6     ecut=    90.00 Ry     beta=0.70
     CG style diagonalization
     ethr =  3.68E-04,  avg # of iterations =  3.9

     negative rho (up, down):  5.578E-06 1.537E-02
 
     Magnetic moment per site:
     atom:    1    charge:    0.8484    magn:    0.0037    constr:    0.0000
     atom:    2    charge:    0.8474    magn:    0.0046    constr:    0.0000
     atom:    3    charge:    0.8478    magn:    0.0023    constr:    0.0000
     atom:    4    charge:    0.8477    magn:    0.0042    constr:    0.0000
     atom:    5    charge:    0.8469    magn:    0.0031    constr:    0.0000
     atom:    6    charge:    0.8476    magn:    0.0036    constr:    0.0000
     atom:    7    charge:    0.4932    magn:    0.0000    constr:    0.0000
     atom:    8    charge:    0.4937    magn:    0.0000    constr:    0.0000
     atom:    9    charge:    0.4920    magn:   -0.0006    constr:    0.0000
     atom:   10    charge:    0.4918    magn:   -0.0006    constr:    0.0000
     atom:   11    charge:    0.4930    magn:    0.0002    constr:    0.0000
     atom:   12    charge:    0.4920    magn:   -0.0009    constr:    0.0000
     atom:   13    charge:    5.8030    magn:    0.7795    constr:    0.0000

     total cpu time spent up to now is       43.4 secs

     The total energy is the sum of the following terms:

     one-electron contribution =    -702.49406785 Ry
     hartree contribution      =     350.58886968 Ry
     xc contribution           =     -30.68150016 Ry
     ewald contribution        =     268.46058250 Ry

     total energy              =    -114.41283966 Ry
     Harris-Foulkes estimate   =    -114.41187505 Ry
     estimated scf accuracy    <       0.03731329 Ry

     total magnetization       =     1.00 Bohr mag/cell
     absolute magnetization    =     1.11 Bohr mag/cell

     iteration #  7     ecut=    90.00 Ry     beta=0.70
     CG style diagonalization
     c_bands:  1 eigenvalues not converged
     ethr =  1.01E-04,  avg # of iterations =  4.8

     negative rho (up, down):  2.784E-05 3.397E-02
 
     Magnetic moment per site:
     atom:    1    charge:    0.8427    magn:   -0.0028    constr:    0.0000
     atom:    2    charge:    0.8426    magn:   -0.0010    constr:    0.0000
     atom:    3    charge:    0.8451    magn:   -0.0042    constr:    0.0000
     atom:    4    charge:    0.8420    magn:   -0.0020    constr:    0.0000
     atom:    5    charge:    0.8424    magn:   -0.0029    constr:    0.0000
     atom:    6    charge:    0.8447    magn:   -0.0035    constr:    0.0000
     atom:    7    charge:    0.4985    magn:   -0.0004    constr:    0.0000
     atom:    8    charge:    0.4989    magn:   -0.0005    constr:    0.0000
     atom:    9    charge:    0.4976    magn:   -0.0006    constr:    0.0000
     atom:   10    charge:    0.4975    magn:   -0.0007    constr:    0.0000
     atom:   11    charge:    0.4979    magn:   -0.0002    constr:    0.0000
     atom:   12    charge:    0.4975    magn:   -0.0009    constr:    0.0000
     atom:   13    charge:    5.8282    magn:    0.9593    constr:    0.0000

     total cpu time spent up to now is       47.2 secs

     The total energy is the sum of the following terms:

     one-electron contribution =    -702.84165861 Ry
     hartree contribution      =     351.07899439 Ry
     xc contribution           =     -30.75004885 Ry
     ewald contribution        =     268.46058250 Ry

     total energy              =    -114.41802916 Ry
     Harris-Foulkes estimate   =    -114.41660818 Ry
     estimated scf accuracy    <       0.00497714 Ry

     total magnetization       =     1.00 Bohr mag/cell
     absolute magnetization    =     1.22 Bohr mag/cell

     iteration #  8     ecut=    90.00 Ry     beta=0.70
     CG style diagonalization
     ethr =  1.35E-05,  avg # of iterations =  6.0

     negative rho (up, down):  1.432E-06 9.098E-03
 
     Magnetic moment per site:
     atom:    1    charge:    0.8444    magn:   -0.0040    constr:    0.0000
     atom:    2    charge:    0.8445    magn:   -0.0032    constr:    0.0000
     atom:    3    charge:    0.8453    magn:   -0.0064    constr:    0.0000
     atom:    4    charge:    0.8432    magn:   -0.0048    constr:    0.0000
     atom:    5    charge:    0.8437    magn:   -0.0061    constr:    0.0000
     atom:    6    charge:    0.8451    magn:   -0.0056    constr:    0.0000
     atom:    7    charge:    0.4974    magn:    0.0001    constr:    0.0000
     atom:    8    charge:    0.4974    magn:   -0.0001    constr:    0.0000
     atom:    9    charge:    0.4957    magn:   -0.0004    constr:    0.0000
     atom:   10    charge:    0.4958    magn:   -0.0004    constr:    0.0000
     atom:   11    charge:    0.4957    magn:   -0.0001    constr:    0.0000
     atom:   12    charge:    0.4958    magn:   -0.0006    constr:    0.0000
     atom:   13    charge:    5.8041    magn:    1.0453    constr:    0.0000

     total cpu time spent up to now is       51.8 secs

     The total energy is the sum of the following terms:

     one-electron contribution =    -703.10495359 Ry
     hartree contribution      =     350.79066346 Ry
     xc contribution           =     -30.71814915 Ry
     ewald contribution        =     268.46058250 Ry

     total energy              =    -114.41886660 Ry
     Harris-Foulkes estimate   =    -114.42078571 Ry
     estimated scf accuracy    <       0.01230986 Ry

     total magnetization       =     1.00 Bohr mag/cell
     absolute magnetization    =     1.58 Bohr mag/cell

     iteration #  9     ecut=    90.00 Ry     beta=0.70
     CG style diagonalization
     ethr =  1.35E-05,  avg # of iterations =  4.8

     negative rho (up, down):  4.030E-06 7.101E-03
 
     Magnetic moment per site:
     atom:    1    charge:    0.8444    magn:   -0.0048    constr:    0.0000
     atom:    2    charge:    0.8452    magn:   -0.0041    constr:    0.0000
     atom:    3    charge:    0.8445    magn:   -0.0074    constr:    0.0000
     atom:    4    charge:    0.8429    magn:   -0.0060    constr:    0.0000
     atom:    5    charge:    0.8440    magn:   -0.0075    constr:    0.0000
     atom:    6    charge:    0.8441    magn:   -0.0067    constr:    0.0000
     atom:    7    charge:    0.4981    magn:    0.0001    constr:    0.0000
     atom:    8    charge:    0.4981    magn:   -0.0001    constr:    0.0000
     atom:    9    charge:    0.4963    magn:   -0.0001    constr:    0.0000
     atom:   10    charge:    0.4963    magn:   -0.0003    constr:    0.0000
     atom:   11    charge:    0.4961    magn:   -0.0001    constr:    0.0000
     atom:   12    charge:    0.4963    magn:   -0.0003    constr:    0.0000
     atom:   13    charge:    5.8176    magn:    1.0795    constr:    0.0000

     total cpu time spent up to now is       55.6 secs

     The total energy is the sum of the following terms:

     one-electron contribution =    -702.76803927 Ry
     hartree contribution      =     350.90875807 Ry
     xc contribution           =     -30.74032684 Ry
     ewald contribution        =     268.46058250 Ry

     total energy              =    -114.42068753 Ry
     Harris-Foulkes estimate   =    -114.42105358 Ry
     estimated scf accuracy    <       0.00452690 Ry

     total magnetization       =     1.00 Bohr mag/cell
     absolute magnetization    =     1.37 Bohr mag/cell

     iteration # 10     ecut=    90.00 Ry     beta=0.70
     CG style diagonalization
     ethr =  1.22E-05,  avg # of iterations =  3.9
 
     Magnetic moment per site:
     atom:    1    charge:    0.8445    magn:   -0.0052    constr:    0.0000
     atom:    2    charge:    0.8454    magn:   -0.0056    constr:    0.0000
     atom:    3    charge:    0.8452    magn:   -0.0087    constr:    0.0000
     atom:    4    charge:    0.8433    magn:   -0.0079    constr:    0.0000
     atom:    5    charge:    0.8447    magn:   -0.0100    constr:    0.0000
     atom:    6    charge:    0.8451    magn:   -0.0079    constr:    0.0000
     atom:    7    charge:    0.4976    magn:    0.0004    constr:    0.0000
     atom:    8    charge:    0.4973    magn:    0.0002    constr:    0.0000
     atom:    9    charge:    0.4956    magn:    0.0002    constr:    0.0000
     atom:   10    charge:    0.4953    magn:    0.0001    constr:    0.0000
     atom:   11    charge:    0.4950    magn:    0.0001    constr:    0.0000
     atom:   12    charge:    0.4956    magn:    0.0001    constr:    0.0000
     atom:   13    charge:    5.8084    magn:    1.1358    constr:    0.0000

     total cpu time spent up to now is       59.0 secs

     The total energy is the sum of the following terms:

     one-electron contribution =    -702.95481356 Ry
     hartree contribution      =     350.74922586 Ry
     xc contribution           =     -30.72646149 Ry
     ewald contribution        =     268.46058250 Ry

     total energy              =    -114.42145315 Ry
     Harris-Foulkes estimate   =    -114.42121530 Ry
     estimated scf accuracy    <       0.00091895 Ry

     total magnetization       =     1.00 Bohr mag/cell
     absolute magnetization    =     1.54 Bohr mag/cell

     iteration # 11     ecut=    90.00 Ry     beta=0.70
     CG style diagonalization
     c_bands:  2 eigenvalues not converged
     ethr =  2.48E-06,  avg # of iterations =  6.0
 
     Magnetic moment per site:
     atom:    1    charge:    0.8445    magn:   -0.0051    constr:    0.0000
     atom:    2    charge:    0.8456    magn:   -0.0061    constr:    0.0000
     atom:    3    charge:    0.8451    magn:   -0.0089    constr:    0.0000
     atom:    4    charge:    0.8430    magn:   -0.0086    constr:    0.0000
     atom:    5    charge:    0.8443    magn:   -0.0112    constr:    0.0000
     atom:    6    charge:    0.8447    magn:   -0.0079    constr:    0.0000
     atom:    7    charge:    0.4977    magn:    0.0005    constr:    0.0000
     atom:    8    charge:    0.4974    magn:    0.0003    constr:    0.0000
     atom:    9    charge:    0.4956    magn:    0.0003    constr:    0.0000
     atom:   10    charge:    0.4953    magn:    0.0003    constr:    0.0000
     atom:   11    charge:    0.4951    magn:    0.0003    constr:    0.0000
     atom:   12    charge:    0.4957    magn:    0.0003    constr:    0.0000
     atom:   13    charge:    5.8062    magn:    1.1537    constr:    0.0000

     total cpu time spent up to now is       63.8 secs

     The total energy is the sum of the following terms:

     one-electron contribution =    -702.88437242 Ry
     hartree contribution      =     350.69468369 Ry
     xc contribution           =     -30.72271907 Ry
     ewald contribution        =     268.46058250 Ry

     total energy              =    -114.42220954 Ry
     Harris-Foulkes estimate   =    -114.42198746 Ry
     estimated scf accuracy    <       0.00116369 Ry

     total magnetization       =     1.00 Bohr mag/cell
     absolute magnetization    =     1.51 Bohr mag/cell

     iteration # 12     ecut=    90.00 Ry     beta=0.70
     CG style diagonalization
     ethr =  2.48E-06,  avg # of iterations =  4.3
 
     Magnetic moment per site:
     atom:    1    charge:    0.8442    magn:   -0.0048    constr:    0.0000
     atom:    2    charge:    0.8449    magn:   -0.0055    constr:    0.0000
     atom:    3    charge:    0.8450    magn:   -0.0084    constr:    0.0000
     atom:    4    charge:    0.8429    magn:   -0.0079    constr:    0.0000
     atom:    5    charge:    0.8439    magn:   -0.0103    constr:    0.0000
     atom:    6    charge:    0.8447    magn:   -0.0075    constr:    0.0000
     atom:    7    charge:    0.4980    magn:    0.0003    constr:    0.0000
     atom:    8    charge:    0.4979    magn:    0.0002    constr:    0.0000
     atom:    9    charge:    0.4962    magn:    0.0002    constr:    0.0000
     atom:   10    charge:    0.4958    magn:    0.0002    constr:    0.0000
     atom:   11    charge:    0.4958    magn:    0.0003    constr:    0.0000
     atom:   12    charge:    0.4962    magn:    0.0002    constr:    0.0000
     atom:   13    charge:    5.8120    magn:    1.1281    constr:    0.0000

     total cpu time spent up to now is       67.4 secs

     The total energy is the sum of the following terms:

     one-electron contribution =    -702.91019576 Ry
     hartree contribution      =     350.80431674 Ry
     xc contribution           =     -30.73219545 Ry
     ewald contribution        =     268.46058250 Ry

     total energy              =    -114.42245857 Ry
     Harris-Foulkes estimate   =    -114.42248263 Ry
     estimated scf accuracy    <       0.00116790 Ry

     total magnetization       =     1.00 Bohr mag/cell
     absolute magnetization    =     1.52 Bohr mag/cell

     iteration # 13     ecut=    90.00 Ry     beta=0.70
     CG style diagonalization
     ethr =  2.48E-06,  avg # of iterations =  4.4

     negative rho (up, down):  3.684E-07 2.160E-08
 
     Magnetic moment per site:
     atom:    1    charge:    0.8441    magn:   -0.0053    constr:    0.0000
     atom:    2    charge:    0.8450    magn:   -0.0069    constr:    0.0000
     atom:    3    charge:    0.8459    magn:   -0.0097    constr:    0.0000
     atom:    4    charge:    0.8433    magn:   -0.0095    constr:    0.0000
     atom:    5    charge:    0.8437    magn:   -0.0125    constr:    0.0000
     atom:    6    charge:    0.8453    magn:   -0.0087    constr:    0.0000
     atom:    7    charge:    0.4978    magn:    0.0004    constr:    0.0000
     atom:    8    charge:    0.4978    magn:    0.0004    constr:    0.0000
     atom:    9    charge:    0.4961    magn:    0.0004    constr:    0.0000
     atom:   10    charge:    0.4955    magn:    0.0005    constr:    0.0000
     atom:   11    charge:    0.4957    magn:    0.0006    constr:    0.0000
     atom:   12    charge:    0.4961    magn:    0.0004    constr:    0.0000
     atom:   13    charge:    5.8106    magn:    1.1580    constr:    0.0000

     total cpu time spent up to now is       71.1 secs

     The total energy is the sum of the following terms:

     one-electron contribution =    -702.96601425 Ry
     hartree contribution      =     350.85745124 Ry
     xc contribution           =     -30.74147973 Ry
     ewald contribution        =     268.46058250 Ry

     total energy              =    -114.42214200 Ry
     Harris-Foulkes estimate   =    -114.42253509 Ry
     estimated scf accuracy    <       0.00037393 Ry

     total magnetization       =     1.00 Bohr mag/cell
     absolute magnetization    =     1.56 Bohr mag/cell

     iteration # 14     ecut=    90.00 Ry     beta=0.70
     CG style diagonalization
     ethr =  1.01E-06,  avg # of iterations =  4.4

     negative rho (up, down):  2.053E-05 1.072E-06
 
     Magnetic moment per site:
     atom:    1    charge:    0.8438    magn:   -0.0052    constr:    0.0000
     atom:    2    charge:    0.8445    magn:   -0.0069    constr:    0.0000
     atom:    3    charge:    0.8450    magn:   -0.0096    constr:    0.0000
     atom:    4    charge:    0.8426    magn:   -0.0097    constr:    0.0000
     atom:    5    charge:    0.8435    magn:   -0.0127    constr:    0.0000
     atom:    6    charge:    0.8449    magn:   -0.0086    constr:    0.0000
     atom:    7    charge:    0.4981    magn:    0.0004    constr:    0.0000
     atom:    8    charge:    0.4981    magn:    0.0004    constr:    0.0000
     atom:    9    charge:    0.4964    magn:    0.0005    constr:    0.0000
     atom:   10    charge:    0.4958    magn:    0.0005    constr:    0.0000
     atom:   11    charge:    0.4960    magn:    0.0006    constr:    0.0000
     atom:   12    charge:    0.4964    magn:    0.0005    constr:    0.0000
     atom:   13    charge:    5.8111    magn:    1.1585    constr:    0.0000

     total cpu time spent up to now is       74.7 secs

     The total energy is the sum of the following terms:

     one-electron contribution =    -702.94876525 Ry
     hartree contribution      =     350.82236344 Ry
     xc contribution           =     -30.73981301 Ry
     ewald contribution        =     268.46058250 Ry

     total energy              =    -114.42369428 Ry
     Harris-Foulkes estimate   =    -114.42360759 Ry
     estimated scf accuracy    <       0.00037095 Ry

     total magnetization       =     1.00 Bohr mag/cell
     absolute magnetization    =     1.61 Bohr mag/cell

     iteration # 15     ecut=    90.00 Ry     beta=0.70
     CG style diagonalization
     ethr =  1.00E-06,  avg # of iterations =  4.5
 
     Magnetic moment per site:
     atom:    1    charge:    0.8441    magn:   -0.0054    constr:    0.0000
     atom:    2    charge:    0.8453    magn:   -0.0061    constr:    0.0000
     atom:    3    charge:    0.8446    magn:   -0.0089    constr:    0.0000
     atom:    4    charge:    0.8429    magn:   -0.0088    constr:    0.0000
     atom:    5    charge:    0.8443    magn:   -0.0110    constr:    0.0000
     atom:    6    charge:    0.8443    magn:   -0.0081    constr:    0.0000
     atom:    7    charge:    0.4980    magn:    0.0003    constr:    0.0000
     atom:    8    charge:    0.4979    magn:    0.0002    constr:    0.0000
     atom:    9    charge:    0.4962    magn:    0.0003    constr:    0.0000
     atom:   10    charge:    0.4959    magn:    0.0002    constr:    0.0000
     atom:   11    charge:    0.4957    magn:    0.0003    constr:    0.0000
     atom:   12    charge:    0.4962    magn:    0.0002    constr:    0.0000
     atom:   13    charge:    5.8107    magn:    1.1411    constr:    0.0000

     total cpu time spent up to now is       78.5 secs

     The total energy is the sum of the following terms:

     one-electron contribution =    -703.04240576 Ry
     hartree contribution      =     350.81140221 Ry
     xc contribution           =     -30.73008299 Ry
     ewald contribution        =     268.46058250 Ry

     total energy              =    -114.42284789 Ry
     Harris-Foulkes estimate   =    -114.42384403 Ry
     estimated scf accuracy    <       0.00080722 Ry

     total magnetization       =     1.00 Bohr mag/cell
     absolute magnetization    =     1.63 Bohr mag/cell

     iteration # 16     ecut=    90.00 Ry     beta=0.70
     CG style diagonalization
     ethr =  1.00E-06,  avg # of iterations =  5.5

     negative rho (up, down):  3.640E-07 2.976E-05
 
     Magnetic moment per site:
     atom:    1    charge:    0.8440    magn:   -0.0055    constr:    0.0000
     atom:    2    charge:    0.8450    magn:   -0.0068    constr:    0.0000
     atom:    3    charge:    0.8449    magn:   -0.0098    constr:    0.0000
     atom:    4    charge:    0.8431    magn:   -0.0099    constr:    0.0000
     atom:    5    charge:    0.8441    magn:   -0.0124    constr:    0.0000
     atom:    6    charge:    0.8447    magn:   -0.0091    constr:    0.0000
     atom:    7    charge:    0.4979    magn:    0.0003    constr:    0.0000
     atom:    8    charge:    0.4979    magn:    0.0003    constr:    0.0000
     atom:    9    charge:    0.4963    magn:    0.0004    constr:    0.0000
     atom:   10    charge:    0.4959    magn:    0.0004    constr:    0.0000
     atom:   11    charge:    0.4958    magn:    0.0005    constr:    0.0000
     atom:   12    charge:    0.4963    magn:    0.0004    constr:    0.0000
     atom:   13    charge:    5.8085    magn:    1.1604    constr:    0.0000

     total cpu time spent up to now is       82.8 secs

     The total energy is the sum of the following terms:

     one-electron contribution =    -703.00037651 Ry
     hartree contribution      =     350.83819006 Ry
     xc contribution           =     -30.73850026 Ry
     ewald contribution        =     268.46058250 Ry

     total energy              =    -114.42278119 Ry
     Harris-Foulkes estimate   =    -114.42333741 Ry
     estimated scf accuracy    <       0.00054079 Ry

     total magnetization       =     1.00 Bohr mag/cell
     absolute magnetization    =     1.59 Bohr mag/cell

     iteration # 17     ecut=    90.00 Ry     beta=0.70
     CG style diagonalization
     ethr =  1.00E-06,  avg # of iterations =  5.5

     negative rho (up, down):  2.178E-09 7.421E-05
 
     Magnetic moment per site:
     atom:    1    charge:    0.8442    magn:   -0.0052    constr:    0.0000
     atom:    2    charge:    0.8450    magn:   -0.0060    constr:    0.0000
     atom:    3    charge:    0.8450    magn:   -0.0093    constr:    0.0000
     atom:    4    charge:    0.8430    magn:   -0.0093    constr:    0.0000
     atom:    5    charge:    0.8440    magn:   -0.0113    constr:    0.0000
     atom:    6    charge:    0.8449    magn:   -0.0088    constr:    0.0000
     atom:    7    charge:    0.4979    magn:    0.0003    constr:    0.0000
     atom:    8    charge:    0.4978    magn:    0.0003    constr:    0.0000
     atom:    9    charge:    0.4962    magn:    0.0003    constr:    0.0000
     atom:   10    charge:    0.4958    magn:    0.0003    constr:    0.0000
     atom:   11    charge:    0.4957    magn:    0.0004    constr:    0.0000
     atom:   12    charge:    0.4962    magn:    0.0003    constr:    0.0000
     atom:   13    charge:    5.8081    magn:    1.1451    constr:    0.0000

     total cpu time spent up to now is       87.2 secs

     The total energy is the sum of the following terms:

     one-electron contribution =    -702.98245816 Ry
     hartree contribution      =     350.82123326 Ry
     xc contribution           =     -30.73262829 Ry
     ewald contribution        =     268.46058250 Ry

     total energy              =    -114.42420712 Ry
     Harris-Foulkes estimate   =    -114.42422289 Ry
     estimated scf accuracy    <       0.00014227 Ry

     total magnetization       =     1.00 Bohr mag/cell
     absolute magnetization    =     1.60 Bohr mag/cell

     iteration # 18     ecut=    90.00 Ry     beta=0.70
     CG style diagonalization
     ethr =  3.85E-07,  avg # of iterations =  4.7

     negative rho (up, down):  8.972E-09 1.423E-04
 
     Magnetic moment per site:
     atom:    1    charge:    0.8439    magn:   -0.0049    constr:    0.0000
     atom:    2    charge:    0.8447    magn:   -0.0059    constr:    0.0000
     atom:    3    charge:    0.8454    magn:   -0.0098    constr:    0.0000
     atom:    4    charge:    0.8433    magn:   -0.0098    constr:    0.0000
     atom:    5    charge:    0.8438    magn:   -0.0115    constr:    0.0000
     atom:    6    charge:    0.8452    magn:   -0.0095    constr:    0.0000
     atom:    7    charge:    0.4978    magn:    0.0003    constr:    0.0000
     atom:    8    charge:    0.4978    magn:    0.0003    constr:    0.0000
     atom:    9    charge:    0.4962    magn:    0.0004    constr:    0.0000
     atom:   10    charge:    0.4958    magn:    0.0004    constr:    0.0000
     atom:   11    charge:    0.4958    magn:    0.0005    constr:    0.0000
     atom:   12    charge:    0.4961    magn:    0.0004    constr:    0.0000
     atom:   13    charge:    5.8064    magn:    1.1484    constr:    0.0000

     total cpu time spent up to now is       91.0 secs

     The total energy is the sum of the following terms:

     one-electron contribution =    -702.96466669 Ry
     hartree contribution      =     350.82566790 Ry
     xc contribution           =     -30.74230803 Ry
     ewald contribution        =     268.46058250 Ry

     total energy              =    -114.42305524 Ry
     Harris-Foulkes estimate   =    -114.42425432 Ry
     estimated scf accuracy    <       0.00020937 Ry

     total magnetization       =     1.00 Bohr mag/cell
     absolute magnetization    =     1.58 Bohr mag/cell

     iteration # 19     ecut=    90.00 Ry     beta=0.70
     CG style diagonalization
     ethr =  3.85E-07,  avg # of iterations =  5.2

     negative rho (up, down):  1.436E-08 7.516E-05
 
     Magnetic moment per site:
     atom:    1    charge:    0.8440    magn:   -0.0044    constr:    0.0000
     atom:    2    charge:    0.8447    magn:   -0.0049    constr:    0.0000
     atom:    3    charge:    0.8452    magn:   -0.0092    constr:    0.0000
     atom:    4    charge:    0.8430    magn:   -0.0088    constr:    0.0000
     atom:    5    charge:    0.8439    magn:   -0.0102    constr:    0.0000
     atom:    6    charge:    0.8453    magn:   -0.0089    constr:    0.0000
     atom:    7    charge:    0.4978    magn:    0.0003    constr:    0.0000
     atom:    8    charge:    0.4978    magn:    0.0002    constr:    0.0000
     atom:    9    charge:    0.4962    magn:    0.0003    constr:    0.0000
     atom:   10    charge:    0.4958    magn:    0.0003    constr:    0.0000
     atom:   11    charge:    0.4958    magn:    0.0004    constr:    0.0000
     atom:   12    charge:    0.4962    magn:    0.0003    constr:    0.0000
     atom:   13    charge:    5.8081    magn:    1.1278    constr:    0.0000

     total cpu time spent up to now is       95.1 secs

     The total energy is the sum of the following terms:

     one-electron contribution =    -702.95481255 Ry
     hartree contribution      =     350.81198481 Ry
     xc contribution           =     -30.73325239 Ry
     ewald contribution        =     268.46058250 Ry

     total energy              =    -114.42458197 Ry
     Harris-Foulkes estimate   =    -114.42474136 Ry
     estimated scf accuracy    <       0.00011774 Ry

     total magnetization       =     1.00 Bohr mag/cell
     absolute magnetization    =     1.57 Bohr mag/cell

     iteration # 20     ecut=    90.00 Ry     beta=0.70
     CG style diagonalization
     ethr =  3.18E-07,  avg # of iterations =  4.9

     negative rho (up, down):  3.880E-09 2.725E-05
 
     Magnetic moment per site:
     atom:    1    charge:    0.8440    magn:   -0.0040    constr:    0.0000
     atom:    2    charge:    0.8446    magn:   -0.0044    constr:    0.0000
     atom:    3    charge:    0.8453    magn:   -0.0094    constr:    0.0000
     atom:    4    charge:    0.8431    magn:   -0.0088    constr:    0.0000
     atom:    5    charge:    0.8437    magn:   -0.0097    constr:    0.0000
     atom:    6    charge:    0.8454    magn:   -0.0093    constr:    0.0000
     atom:    7    charge:    0.4977    magn:    0.0002    constr:    0.0000
     atom:    8    charge:    0.4978    magn:    0.0002    constr:    0.0000
     atom:    9    charge:    0.4961    magn:    0.0003    constr:    0.0000
     atom:   10    charge:    0.4958    magn:    0.0003    constr:    0.0000
     atom:   11    charge:    0.4958    magn:    0.0004    constr:    0.0000
     atom:   12    charge:    0.4961    magn:    0.0003    constr:    0.0000
     atom:   13    charge:    5.8075    magn:    1.1238    constr:    0.0000

     total cpu time spent up to now is       99.0 secs

     The total energy is the sum of the following terms:

     one-electron contribution =    -702.97533836 Ry
     hartree contribution      =     350.80646058 Ry
     xc contribution           =     -30.73706344 Ry
     ewald contribution        =     268.46058250 Ry

     total energy              =    -114.42441992 Ry
     Harris-Foulkes estimate   =    -114.42474056 Ry
     estimated scf accuracy    <       0.00012189 Ry

     total magnetization       =     1.00 Bohr mag/cell
     absolute magnetization    =     1.58 Bohr mag/cell

     iteration # 21     ecut=    90.00 Ry     beta=0.70
     CG style diagonalization
     ethr =  3.18E-07,  avg # of iterations =  4.7

     negative rho (up, down):  0.000E+00 1.062E-08
 
     Magnetic moment per site:
     atom:    1    charge:    0.8440    magn:   -0.0040    constr:    0.0000
     atom:    2    charge:    0.8446    magn:   -0.0044    constr:    0.0000
     atom:    3    charge:    0.8454    magn:   -0.0095    constr:    0.0000
     atom:    4    charge:    0.8432    magn:   -0.0087    constr:    0.0000
     atom:    5    charge:    0.8438    magn:   -0.0096    constr:    0.0000
     atom:    6    charge:    0.8454    magn:   -0.0093    constr:    0.0000
     atom:    7    charge:    0.4978    magn:    0.0002    constr:    0.0000
     atom:    8    charge:    0.4978    magn:    0.0002    constr:    0.0000
     atom:    9    charge:    0.4961    magn:    0.0003    constr:    0.0000
     atom:   10    charge:    0.4957    magn:    0.0003    constr:    0.0000
     atom:   11    charge:    0.4958    magn:    0.0004    constr:    0.0000
     atom:   12    charge:    0.4961    magn:    0.0003    constr:    0.0000
     atom:   13    charge:    5.8076    magn:    1.1250    constr:    0.0000

     total cpu time spent up to now is      102.8 secs

     The total energy is the sum of the following terms:

     one-electron contribution =    -702.97261698 Ry
     hartree contribution      =     350.80206625 Ry
     xc contribution           =     -30.73304071 Ry
     ewald contribution        =     268.46058250 Ry

     total energy              =    -114.42484279 Ry
     Harris-Foulkes estimate   =    -114.42496608 Ry
     estimated scf accuracy    <       0.00005064 Ry

     total magnetization       =     1.00 Bohr mag/cell
     absolute magnetization    =     1.57 Bohr mag/cell

     iteration # 22     ecut=    90.00 Ry     beta=0.70
     CG style diagonalization
     c_bands:  1 eigenvalues not converged
     ethr =  1.37E-07,  avg # of iterations =  6.2

     negative rho (up, down):  0.000E+00 1.946E-06
 
     Magnetic moment per site:
     atom:    1    charge:    0.8440    magn:   -0.0038    constr:    0.0000
     atom:    2    charge:    0.8446    magn:   -0.0041    constr:    0.0000
     atom:    3    charge:    0.8455    magn:   -0.0099    constr:    0.0000
     atom:    4    charge:    0.8433    magn:   -0.0090    constr:    0.0000
     atom:    5    charge:    0.8438    magn:   -0.0095    constr:    0.0000
     atom:    6    charge:    0.8455    magn:   -0.0099    constr:    0.0000
     atom:    7    charge:    0.4977    magn:    0.0002    constr:    0.0000
     atom:    8    charge:    0.4978    magn:    0.0002    constr:    0.0000
     atom:    9    charge:    0.4961    magn:    0.0003    constr:    0.0000
     atom:   10    charge:    0.4957    magn:    0.0003    constr:    0.0000
     atom:   11    charge:    0.4958    magn:    0.0004    constr:    0.0000
     atom:   12    charge:    0.4961    magn:    0.0003    constr:    0.0000
     atom:   13    charge:    5.8062    magn:    1.1278    constr:    0.0000

     total cpu time spent up to now is      107.6 secs

     The total energy is the sum of the following terms:

     one-electron contribution =    -702.97481527 Ry
     hartree contribution      =     350.80449410 Ry
     xc contribution           =     -30.73957738 Ry
     ewald contribution        =     268.46058250 Ry

     total energy              =    -114.42445320 Ry
     Harris-Foulkes estimate   =    -114.42489766 Ry
     estimated scf accuracy    <       0.00011260 Ry

     total magnetization       =     1.00 Bohr mag/cell
     absolute magnetization    =     1.58 Bohr mag/cell

     iteration # 23     ecut=    90.00 Ry     beta=0.70
     CG style diagonalization
     ethr =  1.37E-07,  avg # of iterations =  5.4

     negative rho (up, down):  0.000E+00 1.133E-08
 
     Magnetic moment per site:
     atom:    1    charge:    0.8441    magn:   -0.0040    constr:    0.0000
     atom:    2    charge:    0.8447    magn:   -0.0044    constr:    0.0000
     atom:    3    charge:    0.8453    magn:   -0.0099    constr:    0.0000
     atom:    4    charge:    0.8432    magn:   -0.0091    constr:    0.0000
     atom:    5    charge:    0.8438    magn:   -0.0098    constr:    0.0000
     atom:    6    charge:    0.8453    magn:   -0.0097    constr:    0.0000
     atom:    7    charge:    0.4977    magn:    0.0002    constr:    0.0000
     atom:    8    charge:    0.4978    magn:    0.0002    constr:    0.0000
     atom:    9    charge:    0.4961    magn:    0.0004    constr:    0.0000
     atom:   10    charge:    0.4958    magn:    0.0003    constr:    0.0000
     atom:   11    charge:    0.4958    magn:    0.0004    constr:    0.0000
     atom:   12    charge:    0.4961    magn:    0.0003    constr:    0.0000
     atom:   13    charge:    5.8063    magn:    1.1322    constr:    0.0000

     total cpu time spent up to now is      111.9 secs

     The total energy is the sum of the following terms:

     one-electron contribution =    -702.95402664 Ry
     hartree contribution      =     350.80143859 Ry
     xc contribution           =     -30.73493848 Ry
     ewald contribution        =     268.46058250 Ry

     total energy              =    -114.42487051 Ry
     Harris-Foulkes estimate   =    -114.42501896 Ry
     estimated scf accuracy    <       0.00003425 Ry

     total magnetization       =     1.00 Bohr mag/cell
     absolute magnetization    =     1.56 Bohr mag/cell

     iteration # 24     ecut=    90.00 Ry     beta=0.70
     CG style diagonalization
     ethr =  9.26E-08,  avg # of iterations =  5.1
 
     Magnetic moment per site:
     atom:    1    charge:    0.8441    magn:   -0.0039    constr:    0.0000
     atom:    2    charge:    0.8447    magn:   -0.0041    constr:    0.0000
     atom:    3    charge:    0.8453    magn:   -0.0102    constr:    0.0000
     atom:    4    charge:    0.8432    magn:   -0.0093    constr:    0.0000
     atom:    5    charge:    0.8438    magn:   -0.0096    constr:    0.0000
     atom:    6    charge:    0.8453    magn:   -0.0101    constr:    0.0000
     atom:    7    charge:    0.4976    magn:    0.0002    constr:    0.0000
     atom:    8    charge:    0.4977    magn:    0.0002    constr:    0.0000
     atom:    9    charge:    0.4961    magn:    0.0004    constr:    0.0000
     atom:   10    charge:    0.4958    magn:    0.0003    constr:    0.0000
     atom:   11    charge:    0.4958    magn:    0.0004    constr:    0.0000
     atom:   12    charge:    0.4961    magn:    0.0004    constr:    0.0000
     atom:   13    charge:    5.8056    magn:    1.1339    constr:    0.0000

     total cpu time spent up to now is      116.0 secs

     The total energy is the sum of the following terms:

     one-electron contribution =    -702.95916677 Ry
     hartree contribution      =     350.79843615 Ry
     xc contribution           =     -30.73590765 Ry
     ewald contribution        =     268.46058250 Ry

     total energy              =    -114.42485337 Ry
     Harris-Foulkes estimate   =    -114.42499706 Ry
     estimated scf accuracy    <       0.00003159 Ry

     total magnetization       =     1.00 Bohr mag/cell
     absolute magnetization    =     1.57 Bohr mag/cell

     iteration # 25     ecut=    90.00 Ry     beta=0.70
     CG style diagonalization
     c_bands:  1 eigenvalues not converged
     ethr =  8.54E-08,  avg # of iterations =  5.3
 
     Magnetic moment per site:
     atom:    1    charge:    0.8441    magn:   -0.0038    constr:    0.0000
     atom:    2    charge:    0.8447    magn:   -0.0040    constr:    0.0000
     atom:    3    charge:    0.8454    magn:   -0.0103    constr:    0.0000
     atom:    4    charge:    0.8433    magn:   -0.0094    constr:    0.0000
     atom:    5    charge:    0.8438    magn:   -0.0095    constr:    0.0000
     atom:    6    charge:    0.8454    magn:   -0.0103    constr:    0.0000
     atom:    7    charge:    0.4976    magn:    0.0002    constr:    0.0000
     atom:    8    charge:    0.4977    magn:    0.0002    constr:    0.0000
     atom:    9    charge:    0.4961    magn:    0.0004    constr:    0.0000
     atom:   10    charge:    0.4957    magn:    0.0003    constr:    0.0000
     atom:   11    charge:    0.4958    magn:    0.0004    constr:    0.0000
     atom:   12    charge:    0.4961    magn:    0.0004    constr:    0.0000
     atom:   13    charge:    5.8052    magn:    1.1341    constr:    0.0000

     total cpu time spent up to now is      120.3 secs

     The total energy is the sum of the following terms:

     one-electron contribution =    -702.95274346 Ry
     hartree contribution      =     350.79806260 Ry
     xc contribution           =     -30.73800350 Ry
     ewald contribution        =     268.46058250 Ry

     total energy              =    -114.42499441 Ry
     Harris-Foulkes estimate   =    -114.42504234 Ry
     estimated scf accuracy    <       0.00001151 Ry

     total magnetization       =     1.00 Bohr mag/cell
     absolute magnetization    =     1.57 Bohr mag/cell

     iteration # 26     ecut=    90.00 Ry     beta=0.70
     CG style diagonalization
     ethr =  3.11E-08,  avg # of iterations =  4.5
 
     Magnetic moment per site:
     atom:    1    charge:    0.8441    magn:   -0.0039    constr:    0.0000
     atom:    2    charge:    0.8447    magn:   -0.0041    constr:    0.0000
     atom:    3    charge:    0.8454    magn:   -0.0102    constr:    0.0000
     atom:    4    charge:    0.8432    magn:   -0.0095    constr:    0.0000
     atom:    5    charge:    0.8438    magn:   -0.0097    constr:    0.0000
     atom:    6    charge:    0.8454    magn:   -0.0102    constr:    0.0000
     atom:    7    charge:    0.4976    magn:    0.0002    constr:    0.0000
     atom:    8    charge:    0.4977    magn:    0.0002    constr:    0.0000
     atom:    9    charge:    0.4961    magn:    0.0004    constr:    0.0000
     atom:   10    charge:    0.4957    magn:    0.0004    constr:    0.0000
     atom:   11    charge:    0.4958    magn:    0.0004    constr:    0.0000
     atom:   12    charge:    0.4961    magn:    0.0004    constr:    0.0000
     atom:   13    charge:    5.8052    magn:    1.1354    constr:    0.0000

     total cpu time spent up to now is      123.9 secs

     The total energy is the sum of the following terms:

     one-electron contribution =    -702.94871313 Ry
     hartree contribution      =     350.79965906 Ry
     xc contribution           =     -30.73704582 Ry
     ewald contribution        =     268.46058250 Ry

     total energy              =    -114.42504180 Ry
     Harris-Foulkes estimate   =    -114.42504937 Ry
     estimated scf accuracy    <       0.00000228 Ry

     total magnetization       =     1.00 Bohr mag/cell
     absolute magnetization    =     1.57 Bohr mag/cell

     iteration # 27     ecut=    90.00 Ry     beta=0.70
     CG style diagonalization
     ethr =  6.16E-09,  avg # of iterations =  5.8
 
     Magnetic moment per site:
     atom:    1    charge:    0.8441    magn:   -0.0039    constr:    0.0000
     atom:    2    charge:    0.8447    magn:   -0.0041    constr:    0.0000
     atom:    3    charge:    0.8454    magn:   -0.0102    constr:    0.0000
     atom:    4    charge:    0.8432    magn:   -0.0095    constr:    0.0000
     atom:    5    charge:    0.8438    magn:   -0.0097    constr:    0.0000
     atom:    6    charge:    0.8454    magn:   -0.0102    constr:    0.0000
     atom:    7    charge:    0.4976    magn:    0.0002    constr:    0.0000
     atom:    8    charge:    0.4977    magn:    0.0002    constr:    0.0000
     atom:    9    charge:    0.4961    magn:    0.0004    constr:    0.0000
     atom:   10    charge:    0.4957    magn:    0.0004    constr:    0.0000
     atom:   11    charge:    0.4958    magn:    0.0004    constr:    0.0000
     atom:   12    charge:    0.4961    magn:    0.0004    constr:    0.0000
     atom:   13    charge:    5.8052    magn:    1.1355    constr:    0.0000

     total cpu time spent up to now is      128.5 secs

     The total energy is the sum of the following terms:

     one-electron contribution =    -702.94749205 Ry
     hartree contribution      =     350.79923938 Ry
     xc contribution           =     -30.73719537 Ry
     ewald contribution        =     268.46058250 Ry

     total energy              =    -114.42505023 Ry
     Harris-Foulkes estimate   =    -114.42505064 Ry
     estimated scf accuracy    <       0.00000099 Ry

     total magnetization       =     1.00 Bohr mag/cell
     absolute magnetization    =     1.57 Bohr mag/cell

     iteration # 28     ecut=    90.00 Ry     beta=0.70
     CG style diagonalization
     ethr =  2.68E-09,  avg # of iterations =  3.7
 
     Magnetic moment per site:
     atom:    1    charge:    0.8441    magn:   -0.0039    constr:    0.0000
     atom:    2    charge:    0.8447    magn:   -0.0041    constr:    0.0000
     atom:    3    charge:    0.8454    magn:   -0.0102    constr:    0.0000
     atom:    4    charge:    0.8433    magn:   -0.0095    constr:    0.0000
     atom:    5    charge:    0.8438    magn:   -0.0097    constr:    0.0000
     atom:    6    charge:    0.8454    magn:   -0.0102    constr:    0.0000
     atom:    7    charge:    0.4976    magn:    0.0002    constr:    0.0000
     atom:    8    charge:    0.4977    magn:    0.0002    constr:    0.0000
     atom:    9    charge:    0.4961    magn:    0.0004    constr:    0.0000
     atom:   10    charge:    0.4957    magn:    0.0004    constr:    0.0000
     atom:   11    charge:    0.4958    magn:    0.0004    constr:    0.0000
     atom:   12    charge:    0.4961    magn:    0.0004    constr:    0.0000
     atom:   13    charge:    5.8051    magn:    1.1353    constr:    0.0000

     total cpu time spent up to now is      131.6 secs

     The total energy is the sum of the following terms:

     one-electron contribution =    -702.94723199 Ry
     hartree contribution      =     350.79898767 Ry
     xc contribution           =     -30.73747269 Ry
     ewald contribution        =     268.46058250 Ry

     total energy              =    -114.42505070 Ry
     Harris-Foulkes estimate   =    -114.42505122 Ry
     estimated scf accuracy    <       0.00000033 Ry

     total magnetization       =     1.00 Bohr mag/cell
     absolute magnetization    =     1.57 Bohr mag/cell

     iteration # 29     ecut=    90.00 Ry     beta=0.70
     CG style diagonalization
     ethr =  9.00E-10,  avg # of iterations =  4.8
 
     Magnetic moment per site:
     atom:    1    charge:    0.8441    magn:   -0.0040    constr:    0.0000
     atom:    2    charge:    0.8447    magn:   -0.0041    constr:    0.0000
     atom:    3    charge:    0.8454    magn:   -0.0102    constr:    0.0000
     atom:    4    charge:    0.8432    magn:   -0.0095    constr:    0.0000
     atom:    5    charge:    0.8438    magn:   -0.0097    constr:    0.0000
     atom:    6    charge:    0.8454    magn:   -0.0102    constr:    0.0000
     atom:    7    charge:    0.4976    magn:    0.0002    constr:    0.0000
     atom:    8    charge:    0.4977    magn:    0.0002    constr:    0.0000
     atom:    9    charge:    0.4961    magn:    0.0004    constr:    0.0000
     atom:   10    charge:    0.4957    magn:    0.0004    constr:    0.0000
     atom:   11    charge:    0.4958    magn:    0.0004    constr:    0.0000
     atom:   12    charge:    0.4961    magn:    0.0004    constr:    0.0000
     atom:   13    charge:    5.8052    magn:    1.1351    constr:    0.0000

     total cpu time spent up to now is      135.5 secs

     End of self-consistent calculation

 ------ SPIN UP ------------


          k = 0.0000 0.0000 0.0000 (199344 PWs)   bands (ev):

   -25.3297 -22.5896 -22.5430 -19.5768 -19.0125 -19.0057 -17.1759 -15.5056
   -15.0597 -14.5216 -14.4861 -13.2345 -12.5065 -12.5053 -10.5576 -10.5014
    -8.0649  -6.7433  -6.7302  -5.4277  -5.3940  -5.2330  -4.7534  -4.7449
    -4.2520  -4.2006  -4.1356  -3.5154  -3.4801  -3.3749  -3.2553  -3.0590
    -2.9329  -2.6605  -2.6346  -2.4675  -2.2457  -2.2172  -2.2005  -2.1862

     occupation numbers 
     1.0000   1.0000   1.0000   1.0000   1.0000   1.0000   1.0000   1.0000
     1.0000   1.0000   1.0000   1.0000   1.0000   1.0000   1.0000   1.0000
     1.0000   1.0000   1.0000   0.0000   0.0000   0.0000   0.0000   0.0000
     0.0000   0.0000   0.0000   0.0000   0.0000   0.0000   0.0000   0.0000
     0.0000   0.0000   0.0000   0.0000   0.0000   0.0000   0.0000   0.0000

 ------ SPIN DOWN ----------


          k = 0.0000 0.0000 0.0000 (199344 PWs)   bands (ev):

   -25.3701 -22.6322 -22.5975 -19.0535 -19.0523 -18.0153 -17.1912 -15.5412
   -15.0785 -14.5319 -14.4998 -13.3385 -12.5219 -12.5191 -10.6684 -10.6462
    -6.1398  -6.1153  -5.5025  -5.4921  -5.3501  -5.2660  -4.8116  -4.7827
    -4.3075  -4.2547  -4.1994  -3.5642  -3.5594  -3.4363  -3.3141  -3.1024
    -2.9829  -2.7340  -2.7072  -2.5199  -2.3012  -2.2522  -2.2493  -2.2422

     occupation numbers 
     1.0000   1.0000   1.0000   1.0000   1.0000   1.0000   1.0000   1.0000
     1.0000   1.0000   1.0000   1.0000   1.0000   1.0000   1.0000   1.0000
     1.0000   1.0000   0.0000   0.0000   0.0000   0.0000   0.0000   0.0000
     0.0000   0.0000   0.0000   0.0000   0.0000   0.0000   0.0000   0.0000
     0.0000   0.0000   0.0000   0.0000   0.0000   0.0000   0.0000   0.0000

     highest occupied, lowest unoccupied level (ev):    -6.1153   -5.5025

     The total energy is the sum of the following terms:

     one-electron contribution =    -702.94700142 Ry
     hartree contribution      =     350.79880088 Ry
     xc contribution           =     -30.73743343 Ry
     ewald contribution        =     268.46058250 Ry

!    total energy              =    -114.42505147 Ry
     Harris-Foulkes estimate   =    -114.42505146 Ry
     estimated scf accuracy    <       0.00000004 Ry

     The total energy is the sum of the following terms:

     one-electron contribution =    -702.94700142 Ry
     hartree contribution      =     350.79880088 Ry
     xc contribution           =     -30.73743343 Ry
     ewald contribution        =     268.46058250 Ry

     total magnetization       =     1.00 Bohr mag/cell
     absolute magnetization    =     1.57 Bohr mag/cell

     convergence has been achieved in  29 iterations
 
     Using Hirshfeld
        Amplitude [Ry a.u.] : -3.8817E-01
        Acceptor Fragment start :          13
        Acceptor Fragment end   :          13
        Donor Fragment start :           1
        Donor Fragment end   :          12
 
 
     Using Hirshfeld
        Amplitude [Ry a.u.] : -3.8817E-01
        Acceptor Fragment start :          13
        Acceptor Fragment end   :          13
        Donor Fragment start :           1
        Donor Fragment end   :          12
 
     E field correction              :  0.9316849833402724E+01 Ry    
 
     Donor charge                    :     -0.3506204636046633 e     
     Acceptor charge                 :      0.6513627741590762 e     
     Difference of charges           :     -1.0019832377637421 e     
 
     epcdft_thr                      :  0.1000000000000000E-03 e     
     Surplus(+)/deficit(-) charge    : -0.1983237763742096E-02 e     
 
     -----------------------------------------------
 
                      SCF converged but...
 
     electron localization condition NOT satisfied
     restarting scf with different applied potential
 
     New field Amp                   : -0.3871700000000000E+00 Ry    
     charge density from previous step
 
     Using Hirshfeld
        Amplitude [Ry a.u.] : -3.8717E-01
        Acceptor Fragment start :          13
        Acceptor Fragment end   :          13
        Donor Fragment start :           1
        Donor Fragment end   :          12
 

     total cpu time spent up to now is      143.7 secs

     per-process dynamical memory:    53.0 Mb

     Self-consistent Calculation

     iteration #  1     ecut=    90.00 Ry     beta=0.70
     CG style diagonalization
     c_bands:  3 eigenvalues not converged
     c_bands:  5 eigenvalues not converged
     ethr =  9.00E-10,  avg # of iterations =  7.9
 
     Magnetic moment per site:
     atom:    1    charge:    0.8438    magn:   -0.0037    constr:    0.0000
     atom:    2    charge:    0.8443    magn:   -0.0038    constr:    0.0000
     atom:    3    charge:    0.8449    magn:   -0.0098    constr:    0.0000
     atom:    4    charge:    0.8428    magn:   -0.0092    constr:    0.0000
     atom:    5    charge:    0.8433    magn:   -0.0093    constr:    0.0000
     atom:    6    charge:    0.8449    magn:   -0.0098    constr:    0.0000
     atom:    7    charge:    0.4976    magn:    0.0002    constr:    0.0000
     atom:    8    charge:    0.4977    magn:    0.0002    constr:    0.0000
     atom:    9    charge:    0.4961    magn:    0.0004    constr:    0.0000
     atom:   10    charge:    0.4957    magn:    0.0004    constr:    0.0000
     atom:   11    charge:    0.4958    magn:    0.0004    constr:    0.0000
     atom:   12    charge:    0.4961    magn:    0.0004    constr:    0.0000
     atom:   13    charge:    5.8192    magn:    1.1245    constr:    0.0000

     total cpu time spent up to now is      150.2 secs

     The total energy is the sum of the following terms:

     one-electron contribution =    -702.86235273 Ry
     hartree contribution      =     350.75829730 Ry
     xc contribution           =     -30.73928906 Ry
     ewald contribution        =     268.46058250 Ry

     total energy              =    -114.40086932 Ry
     Harris-Foulkes estimate   =    -114.40107074 Ry
     estimated scf accuracy    <       0.00025018 Ry

     total magnetization       =     1.00 Bohr mag/cell
     absolute magnetization    =     1.54 Bohr mag/cell

     iteration #  2     ecut=    90.00 Ry     beta=0.70
     CG style diagonalization
     ethr =  6.76E-07,  avg # of iterations =  4.2
 
     Magnetic moment per site:
     atom:    1    charge:    0.8441    magn:   -0.0040    constr:    0.0000
     atom:    2    charge:    0.8446    magn:   -0.0040    constr:    0.0000
     atom:    3    charge:    0.8454    magn:   -0.0101    constr:    0.0000
     atom:    4    charge:    0.8433    magn:   -0.0095    constr:    0.0000
     atom:    5    charge:    0.8438    magn:   -0.0096    constr:    0.0000
     atom:    6    charge:    0.8454    magn:   -0.0101    constr:    0.0000
     atom:    7    charge:    0.4976    magn:    0.0002    constr:    0.0000
     atom:    8    charge:    0.4977    magn:    0.0002    constr:    0.0000
     atom:    9    charge:    0.4961    magn:    0.0004    constr:    0.0000
     atom:   10    charge:    0.4957    magn:    0.0004    constr:    0.0000
     atom:   11    charge:    0.4958    magn:    0.0004    constr:    0.0000
     atom:   12    charge:    0.4961    magn:    0.0004    constr:    0.0000
     atom:   13    charge:    5.8068    magn:    1.1334    constr:    0.0000

     total cpu time spent up to now is      153.7 secs

     The total energy is the sum of the following terms:

     one-electron contribution =    -703.48827717 Ry
     hartree contribution      =     350.79879561 Ry
     xc contribution           =     -30.73802779 Ry
     ewald contribution        =     268.46058250 Ry

     total energy              =    -114.39973961 Ry
     Harris-Foulkes estimate   =    -114.40223782 Ry
     estimated scf accuracy    <       0.02108444 Ry

     total magnetization       =     1.00 Bohr mag/cell
     absolute magnetization    =     1.84 Bohr mag/cell

     iteration #  3     ecut=    90.00 Ry     beta=0.70
     CG style diagonalization
     ethr =  6.76E-07,  avg # of iterations =  4.0
 
     Magnetic moment per site:
     atom:    1    charge:    0.8441    magn:   -0.0039    constr:    0.0000
     atom:    2    charge:    0.8447    magn:   -0.0040    constr:    0.0000
     atom:    3    charge:    0.8454    magn:   -0.0101    constr:    0.0000
     atom:    4    charge:    0.8433    magn:   -0.0095    constr:    0.0000
     atom:    5    charge:    0.8438    magn:   -0.0096    constr:    0.0000
     atom:    6    charge:    0.8454    magn:   -0.0101    constr:    0.0000
     atom:    7    charge:    0.4976    magn:    0.0002    constr:    0.0000
     atom:    8    charge:    0.4977    magn:    0.0002    constr:    0.0000
     atom:    9    charge:    0.4961    magn:    0.0004    constr:    0.0000
     atom:   10    charge:    0.4957    magn:    0.0004    constr:    0.0000
     atom:   11    charge:    0.4958    magn:    0.0004    constr:    0.0000
     atom:   12    charge:    0.4961    magn:    0.0004    constr:    0.0000
     atom:   13    charge:    5.8069    magn:    1.1331    constr:    0.0000

     total cpu time spent up to now is      157.1 secs

     The total energy is the sum of the following terms:

     one-electron contribution =    -702.91869654 Ry
     hartree contribution      =     350.80049391 Ry
     xc contribution           =     -30.73815913 Ry
     ewald contribution        =     268.46058250 Ry

     total energy              =    -114.40105152 Ry
     Harris-Foulkes estimate   =    -114.40105186 Ry
     estimated scf accuracy    <       0.00000634 Ry

     total magnetization       =     1.00 Bohr mag/cell
     absolute magnetization    =     1.56 Bohr mag/cell

     iteration #  4     ecut=    90.00 Ry     beta=0.70
     CG style diagonalization
     ethr =  1.71E-08,  avg # of iterations =  5.1
 
     Magnetic moment per site:
     atom:    1    charge:    0.8441    magn:   -0.0039    constr:    0.0000
     atom:    2    charge:    0.8447    magn:   -0.0040    constr:    0.0000
     atom:    3    charge:    0.8454    magn:   -0.0101    constr:    0.0000
     atom:    4    charge:    0.8433    magn:   -0.0095    constr:    0.0000
     atom:    5    charge:    0.8438    magn:   -0.0096    constr:    0.0000
     atom:    6    charge:    0.8454    magn:   -0.0101    constr:    0.0000
     atom:    7    charge:    0.4976    magn:    0.0002    constr:    0.0000
     atom:    8    charge:    0.4977    magn:    0.0002    constr:    0.0000
     atom:    9    charge:    0.4961    magn:    0.0004    constr:    0.0000
     atom:   10    charge:    0.4957    magn:    0.0004    constr:    0.0000
     atom:   11    charge:    0.4958    magn:    0.0004    constr:    0.0000
     atom:   12    charge:    0.4961    magn:    0.0004    constr:    0.0000
     atom:   13    charge:    5.8070    magn:    1.1327    constr:    0.0000

     total cpu time spent up to now is      161.1 secs

     The total energy is the sum of the following terms:

     one-electron contribution =    -702.90678214 Ry
     hartree contribution      =     350.79754869 Ry
     xc contribution           =     -30.73790601 Ry
     ewald contribution        =     268.46058250 Ry

     total energy              =    -114.40105222 Ry
     Harris-Foulkes estimate   =    -114.40105274 Ry
     estimated scf accuracy    <       0.00000688 Ry

     total magnetization       =     1.00 Bohr mag/cell
     absolute magnetization    =     1.56 Bohr mag/cell

     iteration #  5     ecut=    90.00 Ry     beta=0.70
     CG style diagonalization
     ethr =  1.71E-08,  avg # of iterations =  3.0
 
     Magnetic moment per site:
     atom:    1    charge:    0.8441    magn:   -0.0039    constr:    0.0000
     atom:    2    charge:    0.8446    magn:   -0.0040    constr:    0.0000
     atom:    3    charge:    0.8454    magn:   -0.0101    constr:    0.0000
     atom:    4    charge:    0.8433    magn:   -0.0095    constr:    0.0000
     atom:    5    charge:    0.8438    magn:   -0.0096    constr:    0.0000
     atom:    6    charge:    0.8454    magn:   -0.0101    constr:    0.0000
     atom:    7    charge:    0.4976    magn:    0.0002    constr:    0.0000
     atom:    8    charge:    0.4977    magn:    0.0002    constr:    0.0000
     atom:    9    charge:    0.4961    magn:    0.0004    constr:    0.0000
     atom:   10    charge:    0.4957    magn:    0.0004    constr:    0.0000
     atom:   11    charge:    0.4958    magn:    0.0004    constr:    0.0000
     atom:   12    charge:    0.4961    magn:    0.0004    constr:    0.0000
     atom:   13    charge:    5.8070    magn:    1.1323    constr:    0.0000

     total cpu time spent up to now is      163.9 secs

     The total energy is the sum of the following terms:

     one-electron contribution =    -702.91198346 Ry
     hartree contribution      =     350.79632748 Ry
     xc contribution           =     -30.73779548 Ry
     ewald contribution        =     268.46058250 Ry

     total energy              =    -114.40105217 Ry
     Harris-Foulkes estimate   =    -114.40105236 Ry
     estimated scf accuracy    <       0.00000224 Ry

     total magnetization       =     1.00 Bohr mag/cell
     absolute magnetization    =     1.56 Bohr mag/cell

     iteration #  6     ecut=    90.00 Ry     beta=0.70
     CG style diagonalization
     ethr =  6.05E-09,  avg # of iterations =  3.0
 
     Magnetic moment per site:
     atom:    1    charge:    0.8441    magn:   -0.0039    constr:    0.0000
     atom:    2    charge:    0.8446    magn:   -0.0040    constr:    0.0000
     atom:    3    charge:    0.8454    magn:   -0.0101    constr:    0.0000
     atom:    4    charge:    0.8432    magn:   -0.0095    constr:    0.0000
     atom:    5    charge:    0.8438    magn:   -0.0096    constr:    0.0000
     atom:    6    charge:    0.8454    magn:   -0.0100    constr:    0.0000
     atom:    7    charge:    0.4976    magn:    0.0002    constr:    0.0000
     atom:    8    charge:    0.4977    magn:    0.0002    constr:    0.0000
     atom:    9    charge:    0.4961    magn:    0.0004    constr:    0.0000
     atom:   10    charge:    0.4957    magn:    0.0004    constr:    0.0000
     atom:   11    charge:    0.4958    magn:    0.0004    constr:    0.0000
     atom:   12    charge:    0.4961    magn:    0.0004    constr:    0.0000
     atom:   13    charge:    5.8071    magn:    1.1321    constr:    0.0000

     total cpu time spent up to now is      166.6 secs

     The total energy is the sum of the following terms:

     one-electron contribution =    -702.91655371 Ry
     hartree contribution      =     350.79594771 Ry
     xc contribution           =     -30.73775954 Ry
     ewald contribution        =     268.46058250 Ry

     total energy              =    -114.40105223 Ry
     Harris-Foulkes estimate   =    -114.40105225 Ry
     estimated scf accuracy    <       0.00000035 Ry

     total magnetization       =     1.00 Bohr mag/cell
     absolute magnetization    =     1.56 Bohr mag/cell

     iteration #  7     ecut=    90.00 Ry     beta=0.70
     CG style diagonalization
     c_bands:  1 eigenvalues not converged
     ethr =  9.41E-10,  avg # of iterations =  4.4
 
     Magnetic moment per site:
     atom:    1    charge:    0.8441    magn:   -0.0039    constr:    0.0000
     atom:    2    charge:    0.8446    magn:   -0.0040    constr:    0.0000
     atom:    3    charge:    0.8454    magn:   -0.0100    constr:    0.0000
     atom:    4    charge:    0.8432    magn:   -0.0095    constr:    0.0000
     atom:    5    charge:    0.8438    magn:   -0.0095    constr:    0.0000
     atom:    6    charge:    0.8453    magn:   -0.0100    constr:    0.0000
     atom:    7    charge:    0.4976    magn:    0.0002    constr:    0.0000
     atom:    8    charge:    0.4977    magn:    0.0002    constr:    0.0000
     atom:    9    charge:    0.4961    magn:    0.0004    constr:    0.0000
     atom:   10    charge:    0.4957    magn:    0.0004    constr:    0.0000
     atom:   11    charge:    0.4958    magn:    0.0004    constr:    0.0000
     atom:   12    charge:    0.4961    magn:    0.0004    constr:    0.0000
     atom:   13    charge:    5.8073    magn:    1.1318    constr:    0.0000

     total cpu time spent up to now is      170.2 secs

     End of self-consistent calculation

 ------ SPIN UP ------------


          k = 0.0000 0.0000 0.0000 (199344 PWs)   bands (ev):

   -25.3224 -22.5823 -22.5359 -19.5666 -19.0050 -18.9984 -17.1681 -15.4978
   -15.0526 -14.5138 -14.4784 -13.2273 -12.4988 -12.4977 -10.5504 -10.4946
    -8.0572  -6.7344  -6.7213  -5.4201  -5.3866  -5.2219  -4.7418  -4.7333
    -4.2402  -4.1889  -4.1248  -3.5041  -3.4687  -3.3630  -3.2435  -3.0479
    -2.9220  -2.6491  -2.6231  -2.4558  -2.2345  -2.2060  -2.1893  -2.1742

     occupation numbers 
     1.0000   1.0000   1.0000   1.0000   1.0000   1.0000   1.0000   1.0000
     1.0000   1.0000   1.0000   1.0000   1.0000   1.0000   1.0000   1.0000
     1.0000   1.0000   1.0000   0.0000   0.0000   0.0000   0.0000   0.0000
     0.0000   0.0000   0.0000   0.0000   0.0000   0.0000   0.0000   0.0000
     0.0000   0.0000   0.0000   0.0000   0.0000   0.0000   0.0000   0.0000

 ------ SPIN DOWN ----------


          k = 0.0000 0.0000 0.0000 (199344 PWs)   bands (ev):

[...]
 
     Magnetic moment per site:
     atom:    1    charge:    0.8441    magn:   -0.0040    constr:    0.0000
     atom:    2    charge:    0.8447    magn:   -0.0040    constr:    0.0000
     atom:    3    charge:    0.8454    magn:   -0.0101    constr:    0.0000
     atom:    4    charge:    0.8433    magn:   -0.0096    constr:    0.0000
     atom:    5    charge:    0.8438    magn:   -0.0096    constr:    0.0000
     atom:    6    charge:    0.8454    magn:   -0.0101    constr:    0.0000
     atom:    7    charge:    0.4976    magn:    0.0002    constr:    0.0000
     atom:    8    charge:    0.4977    magn:    0.0002    constr:    0.0000
     atom:    9    charge:    0.4961    magn:    0.0004    constr:    0.0000
     atom:   10    charge:    0.4957    magn:    0.0004    constr:    0.0000
     atom:   11    charge:    0.4958    magn:    0.0004    constr:    0.0000
     atom:   12    charge:    0.4961    magn:    0.0004    constr:    0.0000
     atom:   13    charge:    5.8049    magn:    1.1347    constr:    0.0000

     total cpu time spent up to now is      290.2 secs

     The total energy is the sum of the following terms:

     one-electron contribution =    -702.94234629 Ry
     hartree contribution      =     350.79995781 Ry
     xc contribution           =     -30.73733927 Ry
     ewald contribution        =     268.46058250 Ry

     total energy              =    -114.41862256 Ry
     Harris-Foulkes estimate   =    -114.41862339 Ry
     estimated scf accuracy    <       0.00000101 Ry

     total magnetization       =     1.00 Bohr mag/cell
     absolute magnetization    =     1.57 Bohr mag/cell

     iteration #  2     ecut=    90.00 Ry     beta=0.70
     CG style diagonalization
     ethr =  2.72E-09,  avg # of iterations =  4.5
 
     Magnetic moment per site:
     atom:    1    charge:    0.8441    magn:   -0.0040    constr:    0.0000
     atom:    2    charge:    0.8447    magn:   -0.0040    constr:    0.0000
     atom:    3    charge:    0.8454    magn:   -0.0101    constr:    0.0000
     atom:    4    charge:    0.8432    magn:   -0.0096    constr:    0.0000
     atom:    5    charge:    0.8438    magn:   -0.0096    constr:    0.0000
     atom:    6    charge:    0.8454    magn:   -0.0101    constr:    0.0000
     atom:    7    charge:    0.4976    magn:    0.0002    constr:    0.0000
     atom:    8    charge:    0.4977    magn:    0.0002    constr:    0.0000
     atom:    9    charge:    0.4961    magn:    0.0004    constr:    0.0000
     atom:   10    charge:    0.4957    magn:    0.0004    constr:    0.0000
     atom:   11    charge:    0.4958    magn:    0.0004    constr:    0.0000
     atom:   12    charge:    0.4961    magn:    0.0004    constr:    0.0000
     atom:   13    charge:    5.8057    magn:    1.1342    constr:    0.0000

     total cpu time spent up to now is      293.9 secs

     The total energy is the sum of the following terms:

     one-electron contribution =    -702.91259284 Ry
     hartree contribution      =     350.79762699 Ry
     xc contribution           =     -30.73743663 Ry
     ewald contribution        =     268.46058250 Ry

     total energy              =    -114.41861956 Ry
     Harris-Foulkes estimate   =    -114.41862734 Ry
     estimated scf accuracy    <       0.00005467 Ry

     total magnetization       =     1.00 Bohr mag/cell
     absolute magnetization    =     1.56 Bohr mag/cell

     iteration #  3     ecut=    90.00 Ry     beta=0.70
     CG style diagonalization
     ethr =  2.72E-09,  avg # of iterations =  3.9
 
     Magnetic moment per site:
     atom:    1    charge:    0.8441    magn:   -0.0040    constr:    0.0000
     atom:    2    charge:    0.8446    magn:   -0.0040    constr:    0.0000
     atom:    3    charge:    0.8454    magn:   -0.0101    constr:    0.0000
     atom:    4    charge:    0.8432    magn:   -0.0096    constr:    0.0000
     atom:    5    charge:    0.8438    magn:   -0.0096    constr:    0.0000
     atom:    6    charge:    0.8454    magn:   -0.0101    constr:    0.0000
     atom:    7    charge:    0.4976    magn:    0.0002    constr:    0.0000
     atom:    8    charge:    0.4977    magn:    0.0002    constr:    0.0000
     atom:    9    charge:    0.4961    magn:    0.0004    constr:    0.0000
     atom:   10    charge:    0.4957    magn:    0.0004    constr:    0.0000
     atom:   11    charge:    0.4958    magn:    0.0004    constr:    0.0000
     atom:   12    charge:    0.4961    magn:    0.0004    constr:    0.0000
     atom:   13    charge:    5.8057    magn:    1.1342    constr:    0.0000

     total cpu time spent up to now is      297.2 secs

     End of self-consistent calculation

 ------ SPIN UP ------------


          k = 0.0000 0.0000 0.0000 (199344 PWs)   bands (ev):

   -25.3280 -22.5879 -22.5415 -19.5736 -19.0107 -19.0042 -17.1741 -15.5038
   -15.0581 -14.5197 -14.4844 -13.2329 -12.5047 -12.5036 -10.5559 -10.5001
    -8.0622  -6.7409  -6.7275  -5.4257  -5.3925  -5.2302  -4.7505  -4.7419
    -4.2490  -4.1977  -4.1329  -3.5126  -3.4773  -3.3719  -3.2524  -3.0563
    -2.9302  -2.6577  -2.6318  -2.4646  -2.2430  -2.2145  -2.1977  -2.1833

     occupation numbers 
     1.0000   1.0000   1.0000   1.0000   1.0000   1.0000   1.0000   1.0000
     1.0000   1.0000   1.0000   1.0000   1.0000   1.0000   1.0000   1.0000
     1.0000   1.0000   1.0000   0.0000   0.0000   0.0000   0.0000   0.0000
     0.0000   0.0000   0.0000   0.0000   0.0000   0.0000   0.0000   0.0000
     0.0000   0.0000   0.0000   0.0000   0.0000   0.0000   0.0000   0.0000

 ------ SPIN DOWN ----------


          k = 0.0000 0.0000 0.0000 (199344 PWs)   bands (ev):

   -25.3683 -22.6304 -22.5956 -19.0516 -19.0504 -18.0137 -17.1893 -15.5392
   -15.0769 -14.5300 -14.4980 -13.3364 -12.5201 -12.5173 -10.6664 -10.6439
    -6.1383  -6.1137  -5.5006  -5.4901  -5.3485  -5.2634  -4.8085  -4.7796
    -4.3044  -4.2515  -4.1964  -3.5611  -3.5563  -3.4331  -3.3110  -3.0996
    -2.9801  -2.7310  -2.7040  -2.5169  -2.2983  -2.2494  -2.2463  -2.2392

     occupation numbers 
     1.0000   1.0000   1.0000   1.0000   1.0000   1.0000   1.0000   1.0000
     1.0000   1.0000   1.0000   1.0000   1.0000   1.0000   1.0000   1.0000
     1.0000   1.0000   0.0000   0.0000   0.0000   0.0000   0.0000   0.0000
     0.0000   0.0000   0.0000   0.0000   0.0000   0.0000   0.0000   0.0000
     0.0000   0.0000   0.0000   0.0000   0.0000   0.0000   0.0000   0.0000

     highest occupied, lowest unoccupied level (ev):    -6.1137   -5.5006

     The total energy is the sum of the following terms:

     one-electron contribution =    -702.94006562 Ry
     hartree contribution      =     350.79834575 Ry
     xc contribution           =     -30.73748594 Ry
     ewald contribution        =     268.46058250 Ry

!    total energy              =    -114.41862330 Ry
     Harris-Foulkes estimate   =    -114.41862330 Ry
     estimated scf accuracy    <          4.3E-09 Ry

     The total energy is the sum of the following terms:

     one-electron contribution =    -702.94006562 Ry
     hartree contribution      =     350.79834575 Ry
     xc contribution           =     -30.73748594 Ry
     ewald contribution        =     268.46058250 Ry

     total magnetization       =     1.00 Bohr mag/cell
     absolute magnetization    =     1.57 Bohr mag/cell

     convergence has been achieved in   3 iterations
 
     Using Hirshfeld
        Amplitude [Ry a.u.] : -3.8790E-01
        Acceptor Fragment start :          13
        Acceptor Fragment end   :          13
        Donor Fragment start :           1
        Donor Fragment end   :          12
 
 
     Using Hirshfeld
        Amplitude [Ry a.u.] : -3.8790E-01
        Acceptor Fragment start :          13
        Acceptor Fragment end   :          13
        Donor Fragment start :           1
        Donor Fragment end   :          12
 
     E field correction              :  0.9309951065103885E+01 Ry    
 
     Donor charge                    :     -0.3499964868914063 e     
     Acceptor charge                 :      0.6507743798359424 e     
     Difference of charges           :     -1.0007708667273505 e     
 
     epcdft_thr                      :  0.1000000000000000E-03 e     
     Surplus(+)/deficit(-) charge    : -0.7708667273504943E-03 e     
 
     -----------------------------------------------
 
                      SCF converged but...
 
     electron localization condition NOT satisfied
     restarting scf with different applied potential
 
     New field Amp                   : -0.3878056740182494E+00 Ry    
     charge density from previous step
 
     Using Hirshfeld
        Amplitude [Ry a.u.] : -3.8781E-01
        Acceptor Fragment start :          13
        Acceptor Fragment end   :          13
        Donor Fragment start :           1
        Donor Fragment end   :          12
 

     total cpu time spent up to now is      305.0 secs

     per-process dynamical memory:    53.0 Mb

     Self-consistent Calculation

     iteration #  1     ecut=    90.00 Ry     beta=0.70
     CG style diagonalization
     ethr =  2.72E-09,  avg # of iterations =  2.6
 
     Magnetic moment per site:
     atom:    1    charge:    0.8441    magn:   -0.0040    constr:    0.0000
     atom:    2    charge:    0.8446    magn:   -0.0040    constr:    0.0000
     atom:    3    charge:    0.8453    magn:   -0.0101    constr:    0.0000
     atom:    4    charge:    0.8432    magn:   -0.0095    constr:    0.0000
     atom:    5    charge:    0.8437    magn:   -0.0096    constr:    0.0000
     atom:    6    charge:    0.8453    magn:   -0.0101    constr:    0.0000
     atom:    7    charge:    0.4976    magn:    0.0002    constr:    0.0000
     atom:    8    charge:    0.4977    magn:    0.0002    constr:    0.0000
     atom:    9    charge:    0.4961    magn:    0.0004    constr:    0.0000
     atom:   10    charge:    0.4957    magn:    0.0004    constr:    0.0000
     atom:   11    charge:    0.4958    magn:    0.0004    constr:    0.0000
     atom:   12    charge:    0.4961    magn:    0.0004    constr:    0.0000
     atom:   13    charge:    5.8074    magn:    1.1329    constr:    0.0000

     total cpu time spent up to now is      308.1 secs

     The total energy is the sum of the following terms:

     one-electron contribution =    -702.93038446 Ry
     hartree contribution      =     350.79344176 Ry
     xc contribution           =     -30.73773617 Ry
     ewald contribution        =     268.46058250 Ry

     total energy              =    -114.41630458 Ry
     Harris-Foulkes estimate   =    -114.41630769 Ry
     estimated scf accuracy    <       0.00000391 Ry

     total magnetization       =     1.00 Bohr mag/cell
     absolute magnetization    =     1.56 Bohr mag/cell

     iteration #  2     ecut=    90.00 Ry     beta=0.70
     CG style diagonalization
     ethr =  1.06E-08,  avg # of iterations =  4.5
 
     Magnetic moment per site:
     atom:    1    charge:    0.8441    magn:   -0.0040    constr:    0.0000
     atom:    2    charge:    0.8446    magn:   -0.0040    constr:    0.0000
     atom:    3    charge:    0.8454    magn:   -0.0101    constr:    0.0000
     atom:    4    charge:    0.8432    magn:   -0.0096    constr:    0.0000
     atom:    5    charge:    0.8438    magn:   -0.0096    constr:    0.0000
     atom:    6    charge:    0.8454    magn:   -0.0101    constr:    0.0000
     atom:    7    charge:    0.4976    magn:    0.0002    constr:    0.0000
     atom:    8    charge:    0.4977    magn:    0.0002    constr:    0.0000
     atom:    9    charge:    0.4961    magn:    0.0004    constr:    0.0000
     atom:   10    charge:    0.4957    magn:    0.0004    constr:    0.0000
     atom:   11    charge:    0.4958    magn:    0.0004    constr:    0.0000
     atom:   12    charge:    0.4961    magn:    0.0004    constr:    0.0000
     atom:   13    charge:    5.8059    magn:    1.1340    constr:    0.0000

     total cpu time spent up to now is      311.8 secs

     The total energy is the sum of the following terms:

     one-electron contribution =    -702.99616568 Ry
     hartree contribution      =     350.79835302 Ry
     xc contribution           =     -30.73756876 Ry
     ewald contribution        =     268.46058250 Ry

     total energy              =    -114.41629180 Ry
     Harris-Foulkes estimate   =    -114.41632402 Ry
     estimated scf accuracy    <       0.00023479 Ry

     total magnetization       =     1.00 Bohr mag/cell
     absolute magnetization    =     1.60 Bohr mag/cell

     iteration #  3     ecut=    90.00 Ry     beta=0.70
     CG style diagonalization
     ethr =  1.06E-08,  avg # of iterations =  4.0
 
     Magnetic moment per site:
     atom:    1    charge:    0.8441    magn:   -0.0040    constr:    0.0000
     atom:    2    charge:    0.8447    magn:   -0.0040    constr:    0.0000
     atom:    3    charge:    0.8454    magn:   -0.0101    constr:    0.0000
     atom:    4    charge:    0.8433    magn:   -0.0096    constr:    0.0000
     atom:    5    charge:    0.8438    magn:   -0.0096    constr:    0.0000
     atom:    6    charge:    0.8454    magn:   -0.0101    constr:    0.0000
     atom:    7    charge:    0.4976    magn:    0.0002    constr:    0.0000
     atom:    8    charge:    0.4977    magn:    0.0002    constr:    0.0000
     atom:    9    charge:    0.4961    magn:    0.0004    constr:    0.0000
     atom:   10    charge:    0.4957    magn:    0.0004    constr:    0.0000
     atom:   11    charge:    0.4958    magn:    0.0004    constr:    0.0000
     atom:   12    charge:    0.4961    magn:    0.0004    constr:    0.0000
     atom:   13    charge:    5.8059    magn:    1.1339    constr:    0.0000

     total cpu time spent up to now is      315.1 secs

     End of self-consistent calculation

 ------ SPIN UP ------------


          k = 0.0000 0.0000 0.0000 (199344 PWs)   bands (ev):

   -25.3268 -22.5867 -22.5403 -19.5727 -19.0096 -19.0030 -17.1729 -15.5027
   -15.0570 -14.5186 -14.4832 -13.2317 -12.5036 -12.5024 -10.5547 -10.4989
    -8.0615  -6.7401  -6.7266  -5.4246  -5.3914  -5.2290  -4.7492  -4.7406
    -4.2477  -4.1964  -4.1317  -3.5113  -3.4759  -3.3706  -3.2510  -3.0549
    -2.9289  -2.6564  -2.6304  -2.4632  -2.2416  -2.2132  -2.1964  -2.1818

     occupation numbers 
     1.0000   1.0000   1.0000   1.0000   1.0000   1.0000   1.0000   1.0000
     1.0000   1.0000   1.0000   1.0000   1.0000   1.0000   1.0000   1.0000
     1.0000   1.0000   1.0000   0.0000   0.0000   0.0000   0.0000   0.0000
     0.0000   0.0000   0.0000   0.0000   0.0000   0.0000   0.0000   0.0000
     0.0000   0.0000   0.0000   0.0000   0.0000   0.0000   0.0000   0.0000

 ------ SPIN DOWN ----------


          k = 0.0000 0.0000 0.0000 (199344 PWs)   bands (ev):

   -25.3671 -22.6292 -22.5944 -19.0504 -19.0493 -18.0130 -17.1881 -15.5381
   -15.0757 -14.5288 -14.4968 -13.3352 -12.5189 -12.5161 -10.6652 -10.6427
    -6.1376  -6.1130  -5.4996  -5.4890  -5.3478  -5.2621  -4.8070  -4.7782
    -4.3029  -4.2500  -4.1951  -3.5596  -3.5549  -3.4315  -3.3094  -3.0981
    -2.9787  -2.7295  -2.7026  -2.5153  -2.2967  -2.2479  -2.2448  -2.2375

     occupation numbers 
     1.0000   1.0000   1.0000   1.0000   1.0000   1.0000   1.0000   1.0000
     1.0000   1.0000   1.0000   1.0000   1.0000   1.0000   1.0000   1.0000
     1.0000   1.0000   0.0000   0.0000   0.0000   0.0000   0.0000   0.0000
     0.0000   0.0000   0.0000   0.0000   0.0000   0.0000   0.0000   0.0000
     0.0000   0.0000   0.0000   0.0000   0.0000   0.0000   0.0000   0.0000

     highest occupied, lowest unoccupied level (ev):    -6.1130   -5.4996

     The total energy is the sum of the following terms:

     one-electron contribution =    -702.93827051 Ry
     hartree contribution      =     350.79901119 Ry
     xc contribution           =     -30.73763057 Ry
     ewald contribution        =     268.46058250 Ry

!    total energy              =    -114.41630739 Ry
     Harris-Foulkes estimate   =    -114.41630741 Ry
     estimated scf accuracy    <          9.0E-09 Ry

     The total energy is the sum of the following terms:

     one-electron contribution =    -702.93827051 Ry
     hartree contribution      =     350.79901119 Ry
     xc contribution           =     -30.73763057 Ry
     ewald contribution        =     268.46058250 Ry

     total magnetization       =     1.00 Bohr mag/cell
     absolute magnetization    =     1.57 Bohr mag/cell

     convergence has been achieved in   3 iterations
 
     Using Hirshfeld
        Amplitude [Ry a.u.] : -3.8781E-01
        Acceptor Fragment start :          13
        Acceptor Fragment end   :          13
        Donor Fragment start :           1
        Donor Fragment end   :          12
 
 
     Using Hirshfeld
        Amplitude [Ry a.u.] : -3.8781E-01
        Acceptor Fragment start :          13
        Acceptor Fragment end   :          13
        Donor Fragment start :           1
        Donor Fragment end   :          12
 
     E field correction              :  0.9307352001969663E+01 Ry    
 
     Donor charge                    :     -0.3496229651272635 e     
     Acceptor charge                 :      0.6504178427637495 e     
     Difference of charges           :     -1.0000408078910148 e     

     Writing output data file right.save
 
     init_run     :     13.04s CPU     13.04s WALL (       1 calls)
     electrons    :    260.94s CPU    260.94s WALL (       9 calls)
     update_pot   :      5.16s CPU      5.16s WALL (       8 calls)

     Called by init_run:
     wfcinit      :      3.41s CPU      3.41s WALL (       1 calls)
     potinit      :      1.12s CPU      1.12s WALL (       1 calls)

     Called by electrons:
     c_bands      :    169.69s CPU    169.69s WALL (      61 calls)
     sum_band     :     10.58s CPU     10.58s WALL (      61 calls)
     v_of_rho     :     41.56s CPU     41.56s WALL (      69 calls)
     v_h          :      0.43s CPU      0.43s WALL (      69 calls)
     v_xc         :     41.13s CPU     41.13s WALL (      69 calls)
     mix_rho      :      1.11s CPU      1.11s WALL (      61 calls)

     Called by c_bands:
     init_us_2    :      0.74s CPU      0.74s WALL (     246 calls)
     rcgdiagg     :    144.61s CPU    144.61s WALL (     122 calls)
     wfcrot       :     25.52s CPU     25.52s WALL (     104 calls)

     Called by sum_band:

     Called by *cgdiagg:
     h_psi        :    139.54s CPU    139.53s WALL (   18658 calls)
     rdiaghg      :      5.88s CPU      5.88s WALL (     104 calls)
     rdiaghg:chol :      0.43s CPU      0.43s WALL (     104 calls)
     rdiaghg:inve :      0.30s CPU      0.30s WALL (     104 calls)
     rdiaghg:para :      0.22s CPU      0.22s WALL (     208 calls)

     Called by h_psi:
     h_psi:vloc   :    115.81s CPU    115.82s WALL (   18658 calls)
     h_psi:vnl    :     23.42s CPU     23.42s WALL (   18658 calls)
     add_vuspsi   :     18.47s CPU     18.49s WALL (   18658 calls)

     General routines
     calbec       :      8.87s CPU      8.91s WALL (   37212 calls)
     fft          :     29.91s CPU     29.91s WALL (    7035 calls)
     fftw         :    108.12s CPU    108.14s WALL (   44044 calls)
 
     Parallel routines
     fft_scatter  :     60.81s CPU     60.81s WALL (   51079 calls)
 
     PWSCF        :  5m41.16s CPU     5m41.16s WALL

 
   This run was terminated on:  11:27:31  20Aug2015            

=------------------------------------------------------------------------------=
   JOB DONE.
=------------------------------------------------------------------------------=
2015-08-20 11:27:48.292 (INFO ) [0xfffa579c410] CET-42440-53771-128:1291964:ibm.runjob.client.Job: exited with status 0
2015-08-20 11:27:48.292 (INFO ) [0xfffa579c410] tatu.runjob.client: task exited with status 0
2015-08-20 11:27:48.292 (INFO ) [0xfff897234e0] 30324:tatu.runjob.monitor: monitor terminating
2015-08-20 11:27:48.296 (INFO ) [0xfffa579c410] tatu.runjob.client: monitor completed
