2015-08-20 17:10:11.904 (INFO ) [0xfff9125c410] ibm.runjob.AbstractOptions: using properties file /bgsys/local/etc/bg.properties
2015-08-20 17:10:11.920 (INFO ) [0xfff9125c410] ibm.runjob.AbstractOptions: max open file descriptors: 65536
2015-08-20 17:10:11.920 (INFO ) [0xfff9125c410] ibm.runjob.AbstractOptions: core file limit: 18446744073709551615
2015-08-20 17:10:11.922 (INFO ) [0xfff9125c410] 9687:tatu.runjob.client: scheduler job id is 565211
2015-08-20 17:10:11.931 (INFO ) [0xfff77f834e0] 9687:tatu.runjob.monitor: monitor started
2015-08-20 17:10:15.831 (INFO ) [0xfff77f834e0] 9687:tatu.runjob.monitor: task record 1233489 created
2015-08-20 17:10:15.833 (INFO ) [0xfff9125c410] CET-40440-51771-128:9687:ibm.runjob.client.options.Parser: set local socket to runjob_mux from properties file
2015-08-20 17:10:18.706 (INFO ) [0xfff9125c410] CET-40440-51771-128:1292281:ibm.runjob.client.Job: job 1292281 started

     Program PWSCF v.5.1.1 starts on 20Aug2015 at 17:10:18 

     This program is part of the open-source Quantum ESPRESSO suite
     for quantum simulation of materials; please cite
         "P. Giannozzi et al., J. Phys.:Condens. Matter 21 395502 (2009);
          URL http://www.quantum-espresso.org", 
     in publications or presentations arising from this work. More details at
     http://www.quantum-espresso.org/quote

     Parallel version (MPI & OpenMP), running on    1024 processor cores
     Number of MPI processes:              1024
     Threads/MPI process:                     1
     R & G space division:  proc/nbgrp/npool/nimage =    1024
     Waiting for input...
     Reading input from standard input

     Current dimensions of program PWSCF are:
     Max number of different atomic species (ntypx) = 10
     Max number of k-points (npk) =  40000
     Max angular momentum in pseudopotentials (lmaxx) =  3
               file C.pbe-mt_fhi.UPF: wavefunction(s)  4f renormalized
               file H.pbe-mt_fhi.UPF: wavefunction(s)  2p 4f renormalized
               file Cl.pbe-mt_fhi.UPF: wavefunction(s)  4f renormalized

     gamma-point specific algorithms are used
     Message from routine setup:
     the system is metallic, specify occupations

     Subspace diagonalization in iterative solution of the eigenvalue problem:
     scalapack distributed-memory algorithm (size of sub-group: 22* 22 procs)

 
     Parallelization info
     --------------------
     sticks:   dense  smooth     PW     G-vecs:    dense   smooth      PW
     Min          82      82     20                18258    18258    2268
     Max          84      84     22                18316    18316    2314
     Sum       85225   85225  21329             18723953 18723953 2340509
     Tot       42613   42613  10665
 
     Generating pointlists ...
     new r_m :   0.0179 (alat units)  0.8450 (a.u.) for type    1
     new r_m :   0.0179 (alat units)  0.8450 (a.u.) for type    2
     new r_m :   0.0508 (alat units)  2.4011 (a.u.) for type    3
2015-08-20 17:10:26.142 (INFO ) [0xfff77f834e0] 9687:tatu.runjob.monitor: tracklib completed


     bravais-lattice index     =            1
     lattice parameter (alat)  =      47.2432  a.u.
     unit-cell volume          =  105442.7279 (a.u.)^3
     number of atoms/cell      =           13
     number of atomic types    =            3
     number of electrons       =        37.00 (up:  19.00, down:  18.00)
     number of Kohn-Sham states=           40
     kinetic-energy cutoff     =     120.0000  Ry
     charge density cutoff     =     480.0000  Ry
     convergence threshold     =      1.0E-07
     mixing beta               =       0.7000
     number of iterations used =            8  plain     mixing
     Exchange-correlation      = PBE ( 1  4  3  4 0 0)
     Assuming isolated system, Martyna-Tuckerman method


     celldm(1)=  47.243153  celldm(2)=   0.000000  celldm(3)=   0.000000
     celldm(4)=   0.000000  celldm(5)=   0.000000  celldm(6)=   0.000000

     crystal axes: (cart. coord. in units of alat)
               a(1) = (   1.000000   0.000000   0.000000 )  
               a(2) = (   0.000000   1.000000   0.000000 )  
               a(3) = (   0.000000   0.000000   1.000000 )  

     reciprocal axes: (cart. coord. in units 2 pi/alat)
               b(1) = (  1.000000  0.000000  0.000000 )  
               b(2) = (  0.000000  1.000000  0.000000 )  
               b(3) = (  0.000000  0.000000  1.000000 )  


     PseudoPot. # 1 for  C read from file:
     ./C.pbe-mt_fhi.UPF
     MD5 check sum: 058ca341f9d6d5327d9962fd88a91b65
     Pseudo is Norm-conserving, Zval =  4.0
     Generated using FHI98PP, converted with fhi2upf.x v.5.0.2
     Using radial grid of  461 points,  3 beta functions with: 
                l(1) =   0
                l(2) =   1
                l(3) =   3

     PseudoPot. # 2 for  H read from file:
     ./H.pbe-mt_fhi.UPF
     MD5 check sum: a19bd5488733b3d98581df861506e80d
     Pseudo is Norm-conserving, Zval =  1.0
     Generated using FHI98PP, converted with fhi2upf.x v.5.0.2
     Using radial grid of  387 points,  3 beta functions with: 
                l(1) =   0
                l(2) =   1
                l(3) =   3

     PseudoPot. # 3 for Cl read from file:
     ./Cl.pbe-mt_fhi.UPF
     MD5 check sum: 2690b95bbfe21454a1a3af22474751ef
     Pseudo is Norm-conserving, Zval =  7.0
     Generated using FHI98PP, converted with fhi2upf.x v.5.0.2
     Using radial grid of  503 points,  3 beta functions with: 
                l(1) =   0
                l(2) =   1
                l(3) =   3

     atomic species   valence    mass     pseudopotential
        C              4.00    12.01070      C( 1.00)
        H              1.00     1.00794      H( 1.00)
        Cl             7.00     1.00000     Cl( 1.00)

     Starting magnetic structure 
     atomic species   magnetization
        C            0.000
        H            0.000
        Cl           0.000

     No symmetry found


                                    s                        frac. trans.

      isym =  1     identity                                     

 cryst.   s( 1) = (     1          0          0      )
                  (     0          1          0      )
                  (     0          0          1      )

 cart.    s( 1) = (  1.0000000  0.0000000  0.0000000 )
                  (  0.0000000  1.0000000  0.0000000 )
                  (  0.0000000  0.0000000  1.0000000 )


     point group C_1 (1)    
     there are  1 classes
     the character table:

       E    
A      1.00

     the symmetry operations in each class:
     E        1

   Cartesian axes

     site n.     atom                  positions (alat units)
         1           C   tau(   1) = (   0.0000000   0.0558800   0.0000000  )
         2           C   tau(   2) = (   0.0483920   0.0279400   0.0000000  )
         3           C   tau(   3) = (   0.0483920  -0.0279400   0.0000000  )
         4           C   tau(   4) = (   0.0000000  -0.0558800   0.0000000  )
         5           C   tau(   5) = (  -0.0483920  -0.0279400   0.0000000  )
         6           C   tau(   6) = (  -0.0483920   0.0279400   0.0000000  )
         7           H   tau(   7) = (   0.0000000   0.0992400   0.0000000  )
         8           H   tau(   8) = (   0.0859440   0.0496200   0.0000000  )
         9           H   tau(   9) = (   0.0859440  -0.0496200   0.0000000  )
        10           H   tau(  10) = (   0.0000000  -0.0992400   0.0000000  )
        11           H   tau(  11) = (  -0.0859440  -0.0496200   0.0000000  )
        12           H   tau(  12) = (  -0.0859440   0.0496200   0.0000000  )
        13           Cl  tau(  13) = (   0.0241960   0.0419100   0.1200000  )

   Crystallographic axes

     site n.     atom                  positions (cryst. coord.)
         1           C   tau(   1) = (  0.0000000  0.0558800  0.0000000  )
         2           C   tau(   2) = (  0.0483920  0.0279400  0.0000000  )
         3           C   tau(   3) = (  0.0483920 -0.0279400  0.0000000  )
         4           C   tau(   4) = (  0.0000000 -0.0558800  0.0000000  )
         5           C   tau(   5) = ( -0.0483920 -0.0279400  0.0000000  )
         6           C   tau(   6) = ( -0.0483920  0.0279400  0.0000000  )
         7           H   tau(   7) = (  0.0000000  0.0992400  0.0000000  )
         8           H   tau(   8) = (  0.0859440  0.0496200  0.0000000  )
         9           H   tau(   9) = (  0.0859440 -0.0496200  0.0000000  )
        10           H   tau(  10) = (  0.0000000 -0.0992400  0.0000000  )
        11           H   tau(  11) = ( -0.0859440 -0.0496200  0.0000000  )
        12           H   tau(  12) = ( -0.0859440  0.0496200  0.0000000  )
        13           Cl  tau(  13) = (  0.0241960  0.0419100  0.1200000  )

     number of k points=     2
                       cart. coord. in units 2pi/alat
        k(    1) = (   0.0000000   0.0000000   0.0000000), wk =   1.0000000
        k(    2) = (   0.0000000   0.0000000   0.0000000), wk =   1.0000000

                       cryst. coord.
        k(    1) = (   0.0000000   0.0000000   0.0000000), wk =   1.0000000
        k(    2) = (   0.0000000   0.0000000   0.0000000), wk =   1.0000000

     Dense  grid:  9361977 G-vectors     FFT dimensions: ( 336, 336, 336)

     Largest allocated arrays     est. size (Mb)     dimensions
        Kohn-Sham Wavefunctions         0.70 Mb     (    1155,   40)
        NL pseudopotentials             2.52 Mb     (    1155,  143)
        Each V/rho on FFT grid          3.45 Mb     (  112896,   2)
        Each G-vector array             0.07 Mb     (    9154)
        G-vector shells                 0.03 Mb     (    3928)
     Largest temporary arrays     est. size (Mb)     dimensions
        Each subspace H/S matrix        0.00 Mb     (       1,    1)
        Each <psi_i|beta_j> matrix      0.04 Mb     (     143,   40)
        Arrays for rho mixing          13.78 Mb     (  112896,    8)
 
     Using Hirshfeld
        Amplitude [Ry a.u.] : -3.8778E-01
        Acceptor Fragment start :          13
        Acceptor Fragment end   :          13
        Donor Fragment start :           1
        Donor Fragment end   :          12
 

     Initial potential from superposition of free atoms
     Check: negative starting charge=(component1):   -0.004245
     Check: negative starting charge=(component2):   -0.004245

     starting charge   36.99968, renormalised to   37.00000

     negative rho (up, down):  4.245E-03 4.245E-03
     Starting wfc are  208 randomized atomic wfcs

     total cpu time spent up to now is       74.2 secs

     per-process dynamical memory:    73.7 Mb

     Self-consistent Calculation

     iteration #  1     ecut=   120.00 Ry     beta=0.70
     CG style diagonalization
     ethr =  1.00E-02,  avg # of iterations =  4.7

     negative rho (up, down):  1.106E-03 1.138E-03
 
     Magnetic moment per site:
     atom:    1    charge:    1.0225    magn:    0.0317    constr:    0.0000
     atom:    2    charge:    1.0239    magn:    0.0316    constr:    0.0000
     atom:    3    charge:    1.0220    magn:    0.0310    constr:    0.0000
     atom:    4    charge:    1.0201    magn:    0.0302    constr:    0.0000
     atom:    5    charge:    1.0219    magn:    0.0301    constr:    0.0000
     atom:    6    charge:    1.0223    magn:    0.0307    constr:    0.0000
     atom:    7    charge:    0.4452    magn:    0.0012    constr:    0.0000
     atom:    8    charge:    0.4450    magn:    0.0011    constr:    0.0000
     atom:    9    charge:    0.4446    magn:    0.0012    constr:    0.0000
     atom:   10    charge:    0.4448    magn:    0.0012    constr:    0.0000
     atom:   11    charge:    0.4445    magn:    0.0012    constr:    0.0000
     atom:   12    charge:    0.4448    magn:    0.0012    constr:    0.0000
     atom:   13    charge:    3.1677    magn:    0.0007    constr:    0.0000

     total cpu time spent up to now is       88.6 secs

     The total energy is the sum of the following terms:

     one-electron contribution =    -729.35731836 Ry
     hartree contribution      =     372.50012718 Ry
     xc contribution           =     -31.50148418 Ry
     ewald contribution        =     268.46058250 Ry

     total energy              =    -103.20845409 Ry
     Harris-Foulkes estimate   =    -117.32431596 Ry
     estimated scf accuracy    <      16.81386974 Ry

     total magnetization       =     1.00 Bohr mag/cell
     absolute magnetization    =     1.00 Bohr mag/cell

     iteration #  2     ecut=   120.00 Ry     beta=0.70
     CG style diagonalization
     ethr =  1.00E-02,  avg # of iterations =  9.8

     negative rho (up, down):  2.347E-04 2.442E-04
 
     Magnetic moment per site:
     atom:    1    charge:    0.8935    magn:    0.0273    constr:    0.0000
     atom:    2    charge:    0.8946    magn:    0.0272    constr:    0.0000
     atom:    3    charge:    0.8887    magn:    0.0264    constr:    0.0000
     atom:    4    charge:    0.8853    magn:    0.0255    constr:    0.0000
     atom:    5    charge:    0.8868    magn:    0.0255    constr:    0.0000
     atom:    6    charge:    0.8890    magn:    0.0264    constr:    0.0000
     atom:    7    charge:    0.4365    magn:    0.0014    constr:    0.0000
     atom:    8    charge:    0.4367    magn:    0.0010    constr:    0.0000
     atom:    9    charge:    0.4318    magn:    0.0012    constr:    0.0000
     atom:   10    charge:    0.4298    magn:    0.0008    constr:    0.0000
     atom:   11    charge:    0.4298    magn:    0.0007    constr:    0.0000
     atom:   12    charge:    0.4322    magn:    0.0016    constr:    0.0000
     atom:   13    charge:    5.4008    magn:    0.0151    constr:    0.0000

     total cpu time spent up to now is      111.8 secs

     The total energy is the sum of the following terms:

     one-electron contribution =    -551.00678413 Ry
     hartree contribution      =     344.54061179 Ry
     xc contribution           =     -30.09883939 Ry
     ewald contribution        =     268.46058250 Ry

     total energy              =     -86.74079076 Ry
     Harris-Foulkes estimate   =    -140.51430229 Ry
     estimated scf accuracy    <     198.68271290 Ry

     total magnetization       =     1.00 Bohr mag/cell
     absolute magnetization    =     2.79 Bohr mag/cell

     iteration #  3     ecut=   120.00 Ry     beta=0.70
     CG style diagonalization
     ethr =  1.00E-02,  avg # of iterations =  9.7

     negative rho (up, down):  8.486E-05 1.196E-04
 
     Magnetic moment per site:
     atom:    1    charge:    0.8713    magn:    0.0189    constr:    0.0000
     atom:    2    charge:    0.8704    magn:    0.0180    constr:    0.0000
     atom:    3    charge:    0.8661    magn:    0.0219    constr:    0.0000
     atom:    4    charge:    0.8655    magn:    0.0203    constr:    0.0000
     atom:    5    charge:    0.8661    magn:    0.0239    constr:    0.0000
     atom:    6    charge:    0.8693    magn:    0.0220    constr:    0.0000
     atom:    7    charge:    0.4586    magn:   -0.0006    constr:    0.0000
     atom:    8    charge:    0.4585    magn:    0.0001    constr:    0.0000
     atom:    9    charge:    0.4550    magn:   -0.0023    constr:    0.0000
     atom:   10    charge:    0.4573    magn:   -0.0009    constr:    0.0000
     atom:   11    charge:    0.4558    magn:   -0.0007    constr:    0.0000
     atom:   12    charge:    0.4574    magn:   -0.0010    constr:    0.0000
     atom:   13    charge:    5.4417    magn:    0.0138    constr:    0.0000

     total cpu time spent up to now is      135.0 secs

     The total energy is the sum of the following terms:

     one-electron contribution =    -694.53458814 Ry
     hartree contribution      =     343.47391447 Ry
     xc contribution           =     -30.06861784 Ry
     ewald contribution        =     268.46058250 Ry

     total energy              =    -114.00680325 Ry
     Harris-Foulkes estimate   =    -114.06420631 Ry
     estimated scf accuracy    <       0.36819420 Ry

     total magnetization       =     1.00 Bohr mag/cell
     absolute magnetization    =     2.26 Bohr mag/cell

     iteration #  4     ecut=   120.00 Ry     beta=0.70
     CG style diagonalization
     ethr =  9.95E-04,  avg # of iterations =  5.5

     negative rho (up, down):  7.201E-05 1.009E-04
 
     Magnetic moment per site:
     atom:    1    charge:    0.8704    magn:    0.0160    constr:    0.0000
     atom:    2    charge:    0.8700    magn:    0.0152    constr:    0.0000
     atom:    3    charge:    0.8657    magn:    0.0192    constr:    0.0000
     atom:    4    charge:    0.8626    magn:    0.0174    constr:    0.0000
     atom:    5    charge:    0.8642    magn:    0.0206    constr:    0.0000
     atom:    6    charge:    0.8668    magn:    0.0192    constr:    0.0000
     atom:    7    charge:    0.4660    magn:   -0.0007    constr:    0.0000
     atom:    8    charge:    0.4660    magn:   -0.0002    constr:    0.0000
     atom:    9    charge:    0.4634    magn:   -0.0023    constr:    0.0000
     atom:   10    charge:    0.4656    magn:   -0.0010    constr:    0.0000
     atom:   11    charge:    0.4643    magn:   -0.0008    constr:    0.0000
     atom:   12    charge:    0.4653    magn:   -0.0012    constr:    0.0000
     atom:   13    charge:    5.5524    magn:    0.1766    constr:    0.0000

     total cpu time spent up to now is      149.4 secs

     The total energy is the sum of the following terms:

     one-electron contribution =    -704.49500403 Ry
     hartree contribution      =     345.80431477 Ry
     xc contribution           =     -30.27768422 Ry
     ewald contribution        =     268.46058250 Ry

     total energy              =    -114.47298224 Ry
     Harris-Foulkes estimate   =    -114.55680821 Ry
     estimated scf accuracy    <       0.50829526 Ry

     total magnetization       =     1.00 Bohr mag/cell
     absolute magnetization    =     1.11 Bohr mag/cell

     iteration #  5     ecut=   120.00 Ry     beta=0.70
     CG style diagonalization
     ethr =  9.95E-04,  avg # of iterations =  3.0

     negative rho (up, down):  6.419E-05 8.847E-05
 
     Magnetic moment per site:
     atom:    1    charge:    0.8658    magn:    0.0135    constr:    0.0000
     atom:    2    charge:    0.8659    magn:    0.0131    constr:    0.0000
     atom:    3    charge:    0.8633    magn:    0.0159    constr:    0.0000
     atom:    4    charge:    0.8601    magn:    0.0143    constr:    0.0000
     atom:    5    charge:    0.8621    magn:    0.0171    constr:    0.0000
     atom:    6    charge:    0.8636    magn:    0.0161    constr:    0.0000
     atom:    7    charge:    0.4732    magn:   -0.0007    constr:    0.0000
     atom:    8    charge:    0.4731    magn:   -0.0003    constr:    0.0000
     atom:    9    charge:    0.4706    magn:   -0.0019    constr:    0.0000
     atom:   10    charge:    0.4719    magn:   -0.0009    constr:    0.0000
     atom:   11    charge:    0.4709    magn:   -0.0007    constr:    0.0000
     atom:   12    charge:    0.4719    magn:   -0.0010    constr:    0.0000
     atom:   13    charge:    5.6334    magn:    0.3254    constr:    0.0000

     total cpu time spent up to now is      158.2 secs

     The total energy is the sum of the following terms:

     one-electron contribution =    -703.44396120 Ry
     hartree contribution      =     347.30760828 Ry
     xc contribution           =     -30.41424717 Ry
     ewald contribution        =     268.46058250 Ry

     total energy              =    -114.44127350 Ry
     Harris-Foulkes estimate   =    -114.48161697 Ry
     estimated scf accuracy    <       0.31020076 Ry

     total magnetization       =     1.00 Bohr mag/cell
     absolute magnetization    =     1.08 Bohr mag/cell

     iteration #  6     ecut=   120.00 Ry     beta=0.70
     CG style diagonalization
     ethr =  8.38E-04,  avg # of iterations =  3.2

     negative rho (up, down):  3.179E-02 1.071E-04
 
     Magnetic moment per site:
     atom:    1    charge:    0.8464    magn:    0.0046    constr:    0.0000
     atom:    2    charge:    0.8467    magn:    0.0050    constr:    0.0000
     atom:    3    charge:    0.8478    magn:    0.0045    constr:    0.0000
     atom:    4    charge:    0.8470    magn:    0.0036    constr:    0.0000
     atom:    5    charge:    0.8478    magn:    0.0052    constr:    0.0000
     atom:    6    charge:    0.8510    magn:    0.0049    constr:    0.0000
     atom:    7    charge:    0.4976    magn:   -0.0004    constr:    0.0000
     atom:    8    charge:    0.4972    magn:   -0.0004    constr:    0.0000
     atom:    9    charge:    0.4951    magn:   -0.0005    constr:    0.0000
     atom:   10    charge:    0.4935    magn:   -0.0004    constr:    0.0000
     atom:   11    charge:    0.4937    magn:   -0.0005    constr:    0.0000
     atom:   12    charge:    0.4945    magn:   -0.0004    constr:    0.0000
     atom:   13    charge:    5.8793    magn:    0.8123    constr:    0.0000

     total cpu time spent up to now is      166.8 secs

     The total energy is the sum of the following terms:

     one-electron contribution =    -702.95880492 Ry
     hartree contribution      =     351.26450212 Ry
     xc contribution           =     -30.82473551 Ry
     ewald contribution        =     268.46058250 Ry

     total energy              =    -114.36893154 Ry
     Harris-Foulkes estimate   =    -114.44565676 Ry
     estimated scf accuracy    <       0.19025251 Ry

     total magnetization       =     1.00 Bohr mag/cell
     absolute magnetization    =     1.09 Bohr mag/cell

     iteration #  7     ecut=   120.00 Ry     beta=0.70
     CG style diagonalization
     ethr =  5.14E-04,  avg # of iterations =  4.5

     negative rho (up, down):  5.215E-03 3.861E-05
 
     Magnetic moment per site:
     atom:    1    charge:    0.8490    magn:    0.0049    constr:    0.0000
     atom:    2    charge:    0.8481    magn:    0.0041    constr:    0.0000
     atom:    3    charge:    0.8487    magn:    0.0036    constr:    0.0000
     atom:    4    charge:    0.8488    magn:    0.0042    constr:    0.0000
     atom:    5    charge:    0.8487    magn:    0.0048    constr:    0.0000
     atom:    6    charge:    0.8503    magn:    0.0041    constr:    0.0000
     atom:    7    charge:    0.4949    magn:   -0.0004    constr:    0.0000
     atom:    8    charge:    0.4946    magn:   -0.0005    constr:    0.0000
     atom:    9    charge:    0.4924    magn:   -0.0008    constr:    0.0000
     atom:   10    charge:    0.4914    magn:   -0.0005    constr:    0.0000
     atom:   11    charge:    0.4914    magn:   -0.0006    constr:    0.0000
     atom:   12    charge:    0.4921    magn:   -0.0006    constr:    0.0000
     atom:   13    charge:    5.7925    magn:    0.8015    constr:    0.0000

     total cpu time spent up to now is      178.5 secs

     The total energy is the sum of the following terms:

     one-electron contribution =    -707.59842980 Ry
     hartree contribution      =     350.44942127 Ry
     xc contribution           =     -30.71266600 Ry
     ewald contribution        =     268.46058250 Ry

     total energy              =    -114.32640470 Ry
     Harris-Foulkes estimate   =    -114.44940179 Ry
     estimated scf accuracy    <       1.79667319 Ry

     total magnetization       =     1.00 Bohr mag/cell
     absolute magnetization    =     1.80 Bohr mag/cell

     iteration #  8     ecut=   120.00 Ry     beta=0.70
     CG style diagonalization
     ethr =  5.14E-04,  avg # of iterations =  3.4

     negative rho (up, down):  3.724E-02 4.271E-05
 
     Magnetic moment per site:
     atom:    1    charge:    0.8439    magn:    0.0021    constr:    0.0000
     atom:    2    charge:    0.8447    magn:    0.0021    constr:    0.0000
     atom:    3    charge:    0.8494    magn:   -0.0010    constr:    0.0000
     atom:    4    charge:    0.8449    magn:    0.0006    constr:    0.0000
     atom:    5    charge:    0.8440    magn:    0.0011    constr:    0.0000
     atom:    6    charge:    0.8474    magn:   -0.0005    constr:    0.0000
     atom:    7    charge:    0.4976    magn:   -0.0003    constr:    0.0000
     atom:    8    charge:    0.4977    magn:   -0.0004    constr:    0.0000
     atom:    9    charge:    0.4960    magn:   -0.0005    constr:    0.0000
     atom:   10    charge:    0.4954    magn:   -0.0004    constr:    0.0000
     atom:   11    charge:    0.4954    magn:   -0.0005    constr:    0.0000
     atom:   12    charge:    0.4958    magn:   -0.0005    constr:    0.0000
     atom:   13    charge:    5.8355    magn:    0.9358    constr:    0.0000

     total cpu time spent up to now is      187.4 secs

     The total energy is the sum of the following terms:

     one-electron contribution =    -702.64386945 Ry
     hartree contribution      =     351.17177856 Ry
     xc contribution           =     -30.77757879 Ry
     ewald contribution        =     268.46058250 Ry

     total energy              =    -114.41072100 Ry
     Harris-Foulkes estimate   =    -114.41403596 Ry
     estimated scf accuracy    <       0.01395105 Ry

     total magnetization       =     1.00 Bohr mag/cell
     absolute magnetization    =     1.17 Bohr mag/cell

     iteration #  9     ecut=   120.00 Ry     beta=0.70
     CG style diagonalization
     c_bands:  1 eigenvalues not converged
     ethr =  3.77E-05,  avg # of iterations =  5.6

     negative rho (up, down):  3.747E-02 1.121E-04
 
     Magnetic moment per site:
     atom:    1    charge:    0.8426    magn:   -0.0006    constr:    0.0000
     atom:    2    charge:    0.8423    magn:    0.0006    constr:    0.0000
     atom:    3    charge:    0.8475    magn:   -0.0055    constr:    0.0000
     atom:    4    charge:    0.8421    magn:   -0.0028    constr:    0.0000
     atom:    5    charge:    0.8437    magn:   -0.0022    constr:    0.0000
     atom:    6    charge:    0.8488    magn:   -0.0047    constr:    0.0000
     atom:    7    charge:    0.4980    magn:   -0.0003    constr:    0.0000
     atom:    8    charge:    0.4982    magn:   -0.0003    constr:    0.0000
     atom:    9    charge:    0.4966    magn:   -0.0004    constr:    0.0000
     atom:   10    charge:    0.4963    magn:   -0.0004    constr:    0.0000
     atom:   11    charge:    0.4964    magn:   -0.0004    constr:    0.0000
     atom:   12    charge:    0.4966    magn:   -0.0004    constr:    0.0000
     atom:   13    charge:    5.8399    magn:    1.0373    constr:    0.0000

     total cpu time spent up to now is      201.0 secs

     The total energy is the sum of the following terms:

     one-electron contribution =    -703.04886880 Ry
     hartree contribution      =     351.16081101 Ry
     xc contribution           =     -30.77471955 Ry
     ewald contribution        =     268.46058250 Ry

     total energy              =    -114.41622951 Ry
     Harris-Foulkes estimate   =    -114.41474672 Ry
     estimated scf accuracy    <       0.02273148 Ry

     total magnetization       =     1.00 Bohr mag/cell
     absolute magnetization    =     1.51 Bohr mag/cell

     iteration # 10     ecut=   120.00 Ry     beta=0.70
     CG style diagonalization
     ethr =  3.77E-05,  avg # of iterations =  3.5

     negative rho (up, down):  3.276E-02 1.810E-03
 
     Magnetic moment per site:
     atom:    1    charge:    0.8416    magn:   -0.0050    constr:    0.0000
     atom:    2    charge:    0.8425    magn:   -0.0021    constr:    0.0000
     atom:    3    charge:    0.8465    magn:   -0.0097    constr:    0.0000
     atom:    4    charge:    0.8411    magn:   -0.0079    constr:    0.0000
     atom:    5    charge:    0.8425    magn:   -0.0065    constr:    0.0000
     atom:    6    charge:    0.8471    magn:   -0.0088    constr:    0.0000
     atom:    7    charge:    0.4985    magn:   -0.0003    constr:    0.0000
     atom:    8    charge:    0.4988    magn:   -0.0003    constr:    0.0000
     atom:    9    charge:    0.4972    magn:   -0.0004    constr:    0.0000
     atom:   10    charge:    0.4971    magn:   -0.0004    constr:    0.0000
     atom:   11    charge:    0.4971    magn:   -0.0004    constr:    0.0000
     atom:   12    charge:    0.4972    magn:   -0.0004    constr:    0.0000
     atom:   13    charge:    5.8422    magn:    1.1596    constr:    0.0000

     total cpu time spent up to now is      210.2 secs

     The total energy is the sum of the following terms:

     one-electron contribution =    -703.50611458 Ry
     hartree contribution      =     351.11392557 Ry
     xc contribution           =     -30.77346434 Ry
     ewald contribution        =     268.46058250 Ry

     total energy              =    -114.42046743 Ry
     Harris-Foulkes estimate   =    -114.41758436 Ry
     estimated scf accuracy    <       0.06843422 Ry

     total magnetization       =     1.00 Bohr mag/cell
     absolute magnetization    =     1.92 Bohr mag/cell

     iteration # 11     ecut=   120.00 Ry     beta=0.70
     CG style diagonalization
     ethr =  3.77E-05,  avg # of iterations =  3.0

     negative rho (up, down):  2.069E-02 1.956E-05
 
     Magnetic moment per site:
     atom:    1    charge:    0.8422    magn:   -0.0030    constr:    0.0000
     atom:    2    charge:    0.8427    magn:   -0.0009    constr:    0.0000
     atom:    3    charge:    0.8470    magn:   -0.0091    constr:    0.0000
     atom:    4    charge:    0.8415    magn:   -0.0057    constr:    0.0000
     atom:    5    charge:    0.8425    magn:   -0.0051    constr:    0.0000
     atom:    6    charge:    0.8472    magn:   -0.0082    constr:    0.0000
     atom:    7    charge:    0.4976    magn:   -0.0003    constr:    0.0000
     atom:    8    charge:    0.4979    magn:   -0.0003    constr:    0.0000
     atom:    9    charge:    0.4963    magn:   -0.0005    constr:    0.0000
     atom:   10    charge:    0.4964    magn:   -0.0004    constr:    0.0000
     atom:   11    charge:    0.4963    magn:   -0.0004    constr:    0.0000
     atom:   12    charge:    0.4963    magn:   -0.0005    constr:    0.0000
     atom:   13    charge:    5.8181    magn:    1.1149    constr:    0.0000

     total cpu time spent up to now is      218.2 secs

     The total energy is the sum of the following terms:

     one-electron contribution =    -704.31029903 Ry
     hartree contribution      =     350.83409918 Ry
     xc contribution           =     -30.73695009 Ry
     ewald contribution        =     268.46058250 Ry

     total energy              =    -114.41052846 Ry
     Harris-Foulkes estimate   =    -114.42231224 Ry
     estimated scf accuracy    <       0.19914489 Ry

     total magnetization       =     1.00 Bohr mag/cell
     absolute magnetization    =     2.53 Bohr mag/cell

     iteration # 12     ecut=   120.00 Ry     beta=0.70
     CG style diagonalization
     ethr =  3.77E-05,  avg # of iterations =  3.8

     negative rho (up, down):  4.115E-03 3.666E-06
 
     Magnetic moment per site:
     atom:    1    charge:    0.8439    magn:    0.0009    constr:    0.0000
     atom:    2    charge:    0.8430    magn:    0.0027    constr:    0.0000
     atom:    3    charge:    0.8457    magn:   -0.0089    constr:    0.0000
     atom:    4    charge:    0.8422    magn:   -0.0022    constr:    0.0000
     atom:    5    charge:    0.8427    magn:   -0.0020    constr:    0.0000
     atom:    6    charge:    0.8469    magn:   -0.0079    constr:    0.0000
     atom:    7    charge:    0.4971    magn:    0.0000    constr:    0.0000
     atom:    8    charge:    0.4974    magn:    0.0000    constr:    0.0000
     atom:    9    charge:    0.4956    magn:   -0.0003    constr:    0.0000
     atom:   10    charge:    0.4960    magn:   -0.0001    constr:    0.0000
     atom:   11    charge:    0.4958    magn:   -0.0001    constr:    0.0000
     atom:   12    charge:    0.4958    magn:   -0.0002    constr:    0.0000
     atom:   13    charge:    5.8112    magn:    1.0234    constr:    0.0000

     total cpu time spent up to now is      228.0 secs

     The total energy is the sum of the following terms:

     one-electron contribution =    -703.20710187 Ry
     hartree contribution      =     350.67936938 Ry
     xc contribution           =     -30.71902411 Ry
     ewald contribution        =     268.46058250 Ry

     total energy              =    -114.41366413 Ry
     Harris-Foulkes estimate   =    -114.41540776 Ry
     estimated scf accuracy    <       0.01027149 Ry

     total magnetization       =     1.00 Bohr mag/cell
     absolute magnetization    =     1.72 Bohr mag/cell

     iteration # 13     ecut=   120.00 Ry     beta=0.70
     CG style diagonalization
     ethr =  2.78E-05,  avg # of iterations =  5.2

     negative rho (up, down):  8.212E-04 1.195E-06
 
     Magnetic moment per site:
     atom:    1    charge:    0.8435    magn:    0.0047    constr:    0.0000
     atom:    2    charge:    0.8436    magn:    0.0050    constr:    0.0000
     atom:    3    charge:    0.8459    magn:   -0.0072    constr:    0.0000
     atom:    4    charge:    0.8425    magn:    0.0019    constr:    0.0000
     atom:    5    charge:    0.8433    magn:    0.0011    constr:    0.0000
     atom:    6    charge:    0.8462    magn:   -0.0061    constr:    0.0000
     atom:    7    charge:    0.4975    magn:    0.0001    constr:    0.0000
     atom:    8    charge:    0.4979    magn:    0.0000    constr:    0.0000
     atom:    9    charge:    0.4959    magn:    0.0000    constr:    0.0000
     atom:   10    charge:    0.4960    magn:    0.0001    constr:    0.0000
     atom:   11    charge:    0.4960    magn:    0.0001    constr:    0.0000
     atom:   12    charge:    0.4960    magn:    0.0000    constr:    0.0000
     atom:   13    charge:    5.8164    magn:    0.9174    constr:    0.0000

     total cpu time spent up to now is      240.9 secs

     The total energy is the sum of the following terms:

     one-electron contribution =    -702.89717806 Ry
     hartree contribution      =     350.72870476 Ry
     xc contribution           =     -30.72805719 Ry
     ewald contribution        =     268.46058250 Ry

     total energy              =    -114.41353412 Ry
     Harris-Foulkes estimate   =    -114.41462861 Ry
     estimated scf accuracy    <       0.00047047 Ry

     total magnetization       =     1.00 Bohr mag/cell
     absolute magnetization    =     1.45 Bohr mag/cell

     iteration # 14     ecut=   120.00 Ry     beta=0.70
     CG style diagonalization
     c_bands:  1 eigenvalues not converged
     c_bands:  1 eigenvalues not converged
     ethr =  1.27E-06,  avg # of iterations =  6.8

     negative rho (up, down):  6.485E-08 4.016E-07
 
     Magnetic moment per site:
     atom:    1    charge:    0.8440    magn:    0.0081    constr:    0.0000
     atom:    2    charge:    0.8438    magn:    0.0071    constr:    0.0000
     atom:    3    charge:    0.8456    magn:   -0.0066    constr:    0.0000
     atom:    4    charge:    0.8425    magn:    0.0057    constr:    0.0000
     atom:    5    charge:    0.8430    magn:    0.0036    constr:    0.0000
     atom:    6    charge:    0.8460    magn:   -0.0054    constr:    0.0000
     atom:    7    charge:    0.4976    magn:    0.0002    constr:    0.0000
     atom:    8    charge:    0.4979    magn:    0.0000    constr:    0.0000
     atom:    9    charge:    0.4959    magn:    0.0002    constr:    0.0000
     atom:   10    charge:    0.4959    magn:    0.0002    constr:    0.0000
     atom:   11    charge:    0.4959    magn:    0.0001    constr:    0.0000
     atom:   12    charge:    0.4960    magn:    0.0002    constr:    0.0000
     atom:   13    charge:    5.8196    magn:    0.8409    constr:    0.0000

     total cpu time spent up to now is      257.3 secs

     The total energy is the sum of the following terms:

     one-electron contribution =    -702.84382693 Ry
     hartree contribution      =     350.74692856 Ry
     xc contribution           =     -30.73084953 Ry
     ewald contribution        =     268.46058250 Ry

     total energy              =    -114.41287201 Ry
     Harris-Foulkes estimate   =    -114.41387654 Ry
     estimated scf accuracy    <       0.00041470 Ry

     total magnetization       =     1.00 Bohr mag/cell
     absolute magnetization    =     1.34 Bohr mag/cell

     iteration # 15     ecut=   120.00 Ry     beta=0.70
     CG style diagonalization
     c_bands:  1 eigenvalues not converged
     ethr =  1.12E-06,  avg # of iterations =  6.4

     negative rho (up, down):  3.211E-07 1.999E-05
 
     Magnetic moment per site:
     atom:    1    charge:    0.8438    magn:    0.0112    constr:    0.0000
     atom:    2    charge:    0.8435    magn:    0.0090    constr:    0.0000
     atom:    3    charge:    0.8456    magn:   -0.0061    constr:    0.0000
     atom:    4    charge:    0.8427    magn:    0.0092    constr:    0.0000
     atom:    5    charge:    0.8430    magn:    0.0059    constr:    0.0000
     atom:    6    charge:    0.8460    magn:   -0.0047    constr:    0.0000
     atom:    7    charge:    0.4977    magn:    0.0001    constr:    0.0000
     atom:    8    charge:    0.4979    magn:    0.0000    constr:    0.0000
     atom:    9    charge:    0.4959    magn:    0.0002    constr:    0.0000
     atom:   10    charge:    0.4959    magn:    0.0002    constr:    0.0000
     atom:   11    charge:    0.4958    magn:    0.0001    constr:    0.0000
     atom:   12    charge:    0.4960    magn:    0.0002    constr:    0.0000
     atom:   13    charge:    5.8216    magn:    0.7745    constr:    0.0000

     total cpu time spent up to now is      272.9 secs

     The total energy is the sum of the following terms:

     one-electron contribution =    -702.84321333 Ry
     hartree contribution      =     350.74326877 Ry
     xc contribution           =     -30.73129156 Ry
     ewald contribution        =     268.46058250 Ry

     total energy              =    -114.41204236 Ry
     Harris-Foulkes estimate   =    -114.41308585 Ry
     estimated scf accuracy    <       0.00035153 Ry

     total magnetization       =     1.00 Bohr mag/cell
     absolute magnetization    =     1.29 Bohr mag/cell

     iteration # 16     ecut=   120.00 Ry     beta=0.70
     CG style diagonalization
     ethr =  9.50E-07,  avg # of iterations =  5.6

     negative rho (up, down):  1.096E-03 1.101E-06
 
     Magnetic moment per site:
     atom:    1    charge:    0.8437    magn:   -0.0055    constr:    0.0000
     atom:    2    charge:    0.8443    magn:   -0.0015    constr:    0.0000
     atom:    3    charge:    0.8456    magn:   -0.0104    constr:    0.0000
     atom:    4    charge:    0.8422    magn:   -0.0096    constr:    0.0000
     atom:    5    charge:    0.8431    magn:   -0.0069    constr:    0.0000
     atom:    6    charge:    0.8460    magn:   -0.0098    constr:    0.0000
     atom:    7    charge:    0.4975    magn:    0.0002    constr:    0.0000
     atom:    8    charge:    0.4979    magn:    0.0001    constr:    0.0000
     atom:    9    charge:    0.4959    magn:    0.0000    constr:    0.0000
     atom:   10    charge:    0.4961    magn:    0.0002    constr:    0.0000
     atom:   11    charge:    0.4960    magn:    0.0001    constr:    0.0000
     atom:   12    charge:    0.4961    magn:    0.0000    constr:    0.0000
     atom:   13    charge:    5.8138    magn:    1.1407    constr:    0.0000

     total cpu time spent up to now is      286.6 secs

     The total energy is the sum of the following terms:

     one-electron contribution =    -702.87555153 Ry
     hartree contribution      =     350.74368431 Ry
     xc contribution           =     -30.73427157 Ry
     ewald contribution        =     268.46058250 Ry

     total energy              =    -114.41071160 Ry
     Harris-Foulkes estimate   =    -114.41222733 Ry
     estimated scf accuracy    <       0.00045502 Ry

     total magnetization       =     1.00 Bohr mag/cell
     absolute magnetization    =     1.27 Bohr mag/cell

     iteration # 17     ecut=   120.00 Ry     beta=0.70
     CG style diagonalization
     c_bands:  1 eigenvalues not converged
     c_bands:  1 eigenvalues not converged
     ethr =  9.50E-07,  avg # of iterations =  7.7

     negative rho (up, down):  7.595E-07 6.258E-07
 
     Magnetic moment per site:
     atom:    1    charge:    0.8437    magn:   -0.0008    constr:    0.0000
     atom:    2    charge:    0.8436    magn:    0.0018    constr:    0.0000
     atom:    3    charge:    0.8457    magn:   -0.0095    constr:    0.0000
     atom:    4    charge:    0.8429    magn:   -0.0042    constr:    0.0000
     atom:    5    charge:    0.8431    magn:   -0.0030    constr:    0.0000
     atom:    6    charge:    0.8461    magn:   -0.0087    constr:    0.0000
     atom:    7    charge:    0.4976    magn:    0.0000    constr:    0.0000
     atom:    8    charge:    0.4979    magn:    0.0000    constr:    0.0000
     atom:    9    charge:    0.4959    magn:    0.0001    constr:    0.0000
     atom:   10    charge:    0.4959    magn:    0.0000    constr:    0.0000
     atom:   11    charge:    0.4958    magn:    0.0001    constr:    0.0000
     atom:   12    charge:    0.4959    magn:    0.0001    constr:    0.0000
     atom:   13    charge:    5.8146    magn:    1.0301    constr:    0.0000

     total cpu time spent up to now is      304.9 secs

     The total energy is the sum of the following terms:

     one-electron contribution =    -703.15635898 Ry
     hartree contribution      =     350.74747227 Ry
     xc contribution           =     -30.73054253 Ry
     ewald contribution        =     268.46058250 Ry

     total energy              =    -114.41434976 Ry
     Harris-Foulkes estimate   =    -114.41519600 Ry
     estimated scf accuracy    <       0.00414140 Ry

     total magnetization       =     1.00 Bohr mag/cell
     absolute magnetization    =     1.70 Bohr mag/cell

     iteration # 18     ecut=   120.00 Ry     beta=0.70
     CG style diagonalization
     c_bands:  1 eigenvalues not converged
     ethr =  9.50E-07,  avg # of iterations =  6.4

     negative rho (up, down):  1.007E-11 4.966E-06
 
     Magnetic moment per site:
     atom:    1    charge:    0.8436    magn:    0.0022    constr:    0.0000
     atom:    2    charge:    0.8433    magn:    0.0040    constr:    0.0000
     atom:    3    charge:    0.8458    magn:   -0.0100    constr:    0.0000
     atom:    4    charge:    0.8428    magn:   -0.0008    constr:    0.0000
     atom:    5    charge:    0.8431    magn:   -0.0007    constr:    0.0000
     atom:    6    charge:    0.8465    magn:   -0.0091    constr:    0.0000
     atom:    7    charge:    0.4978    magn:   -0.0001    constr:    0.0000
     atom:    8    charge:    0.4980    magn:   -0.0001    constr:    0.0000
     atom:    9    charge:    0.4960    magn:    0.0004    constr:    0.0000
     atom:   10    charge:    0.4958    magn:    0.0000    constr:    0.0000
     atom:   11    charge:    0.4956    magn:    0.0001    constr:    0.0000
     atom:   12    charge:    0.4959    magn:    0.0003    constr:    0.0000
     atom:   13    charge:    5.8157    magn:    0.9625    constr:    0.0000

     total cpu time spent up to now is      320.4 secs

     The total energy is the sum of the following terms:

     one-electron contribution =    -702.93044520 Ry
     hartree contribution      =     350.75196538 Ry
     xc contribution           =     -30.73050781 Ry
     ewald contribution        =     268.46058250 Ry

     total energy              =    -114.41445285 Ry
     Harris-Foulkes estimate   =    -114.41496344 Ry
     estimated scf accuracy    <       0.00036364 Ry

     total magnetization       =     1.00 Bohr mag/cell
     absolute magnetization    =     1.50 Bohr mag/cell

     iteration # 19     ecut=   120.00 Ry     beta=0.70
     CG style diagonalization
     c_bands:  2 eigenvalues not converged
     c_bands:  1 eigenvalues not converged
     ethr =  9.50E-07,  avg # of iterations =  6.6

     negative rho (up, down):  1.089E-07 1.266E-04
 
     Magnetic moment per site:
     atom:    1    charge:    0.8438    magn:    0.0009    constr:    0.0000
     atom:    2    charge:    0.8436    magn:    0.0035    constr:    0.0000
     atom:    3    charge:    0.8457    magn:   -0.0114    constr:    0.0000
     atom:    4    charge:    0.8430    magn:   -0.0025    constr:    0.0000
     atom:    5    charge:    0.8434    magn:   -0.0017    constr:    0.0000
     atom:    6    charge:    0.8463    magn:   -0.0107    constr:    0.0000
     atom:    7    charge:    0.4977    magn:   -0.0001    constr:    0.0000
     atom:    8    charge:    0.4979    magn:   -0.0001    constr:    0.0000
     atom:    9    charge:    0.4960    magn:    0.0005    constr:    0.0000
     atom:   10    charge:    0.4957    magn:    0.0001    constr:    0.0000
     atom:   11    charge:    0.4956    magn:    0.0001    constr:    0.0000
     atom:   12    charge:    0.4959    magn:    0.0005    constr:    0.0000
     atom:   13    charge:    5.8147    magn:    0.9879    constr:    0.0000

     total cpu time spent up to now is      336.4 secs

     The total energy is the sum of the following terms:

     one-electron contribution =    -702.87518296 Ry
     hartree contribution      =     350.77898527 Ry
     xc contribution           =     -30.73459625 Ry
     ewald contribution        =     268.46058250 Ry

     total energy              =    -114.41507615 Ry
     Harris-Foulkes estimate   =    -114.41487310 Ry
     estimated scf accuracy    <       0.00033377 Ry

     total magnetization       =     1.00 Bohr mag/cell
     absolute magnetization    =     1.41 Bohr mag/cell

     iteration # 20     ecut=   120.00 Ry     beta=0.70
     CG style diagonalization
     ethr =  9.02E-07,  avg # of iterations =  6.1

     negative rho (up, down):  8.565E-10 3.854E-06
 
     Magnetic moment per site:
     atom:    1    charge:    0.8437    magn:   -0.0053    constr:    0.0000
     atom:    2    charge:    0.8445    magn:   -0.0004    constr:    0.0000
     atom:    3    charge:    0.8458    magn:   -0.0129    constr:    0.0000
     atom:    4    charge:    0.8428    magn:   -0.0101    constr:    0.0000
     atom:    5    charge:    0.8431    magn:   -0.0065    constr:    0.0000
     atom:    6    charge:    0.8457    magn:   -0.0126    constr:    0.0000
     atom:    7    charge:    0.4976    magn:    0.0001    constr:    0.0000
     atom:    8    charge:    0.4979    magn:    0.0000    constr:    0.0000
     atom:    9    charge:    0.4961    magn:    0.0005    constr:    0.0000
     atom:   10    charge:    0.4960    magn:    0.0001    constr:    0.0000
     atom:   11    charge:    0.4958    magn:    0.0002    constr:    0.0000
     atom:   12    charge:    0.4961    magn:    0.0004    constr:    0.0000
     atom:   13    charge:    5.8101    magn:    1.1334    constr:    0.0000

     total cpu time spent up to now is      351.4 secs

     The total energy is the sum of the following terms:

     one-electron contribution =    -702.86730018 Ry
     hartree contribution      =     350.77129152 Ry
     xc contribution           =     -30.73624193 Ry
     ewald contribution        =     268.46058250 Ry

     total energy              =    -114.41549153 Ry
     Harris-Foulkes estimate   =    -114.41543042 Ry
     estimated scf accuracy    <       0.00028275 Ry

     total magnetization       =     1.00 Bohr mag/cell
     absolute magnetization    =     1.43 Bohr mag/cell

     iteration # 21     ecut=   120.00 Ry     beta=0.70
     CG style diagonalization
     ethr =  7.64E-07,  avg # of iterations =  6.0

     negative rho (up, down):  8.934E-09 1.062E-08
 
     Magnetic moment per site:
     atom:    1    charge:    0.8437    magn:   -0.0054    constr:    0.0000
     atom:    2    charge:    0.8445    magn:   -0.0007    constr:    0.0000
     atom:    3    charge:    0.8453    magn:   -0.0129    constr:    0.0000
     atom:    4    charge:    0.8426    magn:   -0.0105    constr:    0.0000
     atom:    5    charge:    0.8434    magn:   -0.0068    constr:    0.0000
     atom:    6    charge:    0.8456    magn:   -0.0127    constr:    0.0000
     atom:    7    charge:    0.4976    magn:    0.0000    constr:    0.0000
     atom:    8    charge:    0.4978    magn:   -0.0001    constr:    0.0000
     atom:    9    charge:    0.4961    magn:    0.0004    constr:    0.0000
     atom:   10    charge:    0.4961    magn:    0.0001    constr:    0.0000
     atom:   11    charge:    0.4959    magn:    0.0001    constr:    0.0000
     atom:   12    charge:    0.4962    magn:    0.0004    constr:    0.0000
     atom:   13    charge:    5.8088    magn:    1.1436    constr:    0.0000

     total cpu time spent up to now is      366.0 secs

     The total energy is the sum of the following terms:

     one-electron contribution =    -703.02965156 Ry
     hartree contribution      =     350.76631739 Ry
     xc contribution           =     -30.73680308 Ry
     ewald contribution        =     268.46058250 Ry

     total energy              =    -114.41635812 Ry
     Harris-Foulkes estimate   =    -114.41634954 Ry
     estimated scf accuracy    <       0.00102321 Ry

     total magnetization       =     1.00 Bohr mag/cell
     absolute magnetization    =     1.63 Bohr mag/cell

     iteration # 22     ecut=   120.00 Ry     beta=0.70
     CG style diagonalization
     ethr =  7.64E-07,  avg # of iterations =  5.5

     negative rho (up, down):  1.146E-04 3.147E-09
 
     Magnetic moment per site:
     atom:    1    charge:    0.8436    magn:   -0.0057    constr:    0.0000
     atom:    2    charge:    0.8442    magn:   -0.0014    constr:    0.0000
     atom:    3    charge:    0.8457    magn:   -0.0121    constr:    0.0000
     atom:    4    charge:    0.8425    magn:   -0.0111    constr:    0.0000
     atom:    5    charge:    0.8434    magn:   -0.0073    constr:    0.0000
     atom:    6    charge:    0.8460    magn:   -0.0120    constr:    0.0000
     atom:    7    charge:    0.4977    magn:    0.0002    constr:    0.0000
     atom:    8    charge:    0.4979    magn:    0.0001    constr:    0.0000
     atom:    9    charge:    0.4961    magn:    0.0004    constr:    0.0000
     atom:   10    charge:    0.4960    magn:    0.0003    constr:    0.0000
     atom:   11    charge:    0.4958    magn:    0.0002    constr:    0.0000
     atom:   12    charge:    0.4960    magn:    0.0004    constr:    0.0000
     atom:   13    charge:    5.8090    magn:    1.1533    constr:    0.0000

     total cpu time spent up to now is      379.5 secs

     The total energy is the sum of the following terms:

     one-electron contribution =    -703.04948631 Ry
     hartree contribution      =     350.78480136 Ry
     xc contribution           =     -30.73724897 Ry
     ewald contribution        =     268.46058250 Ry

     total energy              =    -114.41672085 Ry
     Harris-Foulkes estimate   =    -114.41666677 Ry
     estimated scf accuracy    <       0.00099726 Ry

     total magnetization       =     1.00 Bohr mag/cell
     absolute magnetization    =     1.64 Bohr mag/cell

     iteration # 23     ecut=   120.00 Ry     beta=0.70
     CG style diagonalization
     c_bands:  2 eigenvalues not converged
     c_bands:  1 eigenvalues not converged
     ethr =  7.64E-07,  avg # of iterations =  6.8

     negative rho (up, down):  5.042E-04 1.490E-07
 
     Magnetic moment per site:
     atom:    1    charge:    0.8435    magn:   -0.0065    constr:    0.0000
     atom:    2    charge:    0.8446    magn:   -0.0025    constr:    0.0000
     atom:    3    charge:    0.8455    magn:   -0.0114    constr:    0.0000
     atom:    4    charge:    0.8426    magn:   -0.0125    constr:    0.0000
     atom:    5    charge:    0.8438    magn:   -0.0085    constr:    0.0000
     atom:    6    charge:    0.8456    magn:   -0.0116    constr:    0.0000
     atom:    7    charge:    0.4978    magn:    0.0004    constr:    0.0000
     atom:    8    charge:    0.4979    magn:    0.0002    constr:    0.0000
     atom:    9    charge:    0.4960    magn:    0.0005    constr:    0.0000
     atom:   10    charge:    0.4960    magn:    0.0005    constr:    0.0000
     atom:   11    charge:    0.4958    magn:    0.0003    constr:    0.0000
     atom:   12    charge:    0.4960    magn:    0.0005    constr:    0.0000
     atom:   13    charge:    5.8065    magn:    1.1725    constr:    0.0000

     total cpu time spent up to now is      395.5 secs

     The total energy is the sum of the following terms:

     one-electron contribution =    -703.04296619 Ry
     hartree contribution      =     350.78838770 Ry
     xc contribution           =     -30.74047753 Ry
     ewald contribution        =     268.46058250 Ry

     total energy              =    -114.41631697 Ry
     Harris-Foulkes estimate   =    -114.41677671 Ry
     estimated scf accuracy    <       0.00107261 Ry

     total magnetization       =     1.00 Bohr mag/cell
     absolute magnetization    =     1.65 Bohr mag/cell

     iteration # 24     ecut=   120.00 Ry     beta=0.70
     CG style diagonalization
     c_bands:  1 eigenvalues not converged
     ethr =  7.64E-07,  avg # of iterations =  5.8

     negative rho (up, down):  7.800E-04 3.385E-07
 
     Magnetic moment per site:
     atom:    1    charge:    0.8436    magn:   -0.0053    constr:    0.0000
     atom:    2    charge:    0.8447    magn:   -0.0028    constr:    0.0000
     atom:    3    charge:    0.8455    magn:   -0.0099    constr:    0.0000
     atom:    4    charge:    0.8424    magn:   -0.0110    constr:    0.0000
     atom:    5    charge:    0.8437    magn:   -0.0084    constr:    0.0000
     atom:    6    charge:    0.8457    magn:   -0.0099    constr:    0.0000
     atom:    7    charge:    0.4978    magn:    0.0004    constr:    0.0000
     atom:    8    charge:    0.4978    magn:    0.0002    constr:    0.0000
     atom:    9    charge:    0.4960    magn:    0.0004    constr:    0.0000
     atom:   10    charge:    0.4959    magn:    0.0006    constr:    0.0000
     atom:   11    charge:    0.4958    magn:    0.0004    constr:    0.0000
     atom:   12    charge:    0.4960    magn:    0.0004    constr:    0.0000
     atom:   13    charge:    5.8066    magn:    1.1472    constr:    0.0000

     total cpu time spent up to now is      409.6 secs

     The total energy is the sum of the following terms:

     one-electron contribution =    -703.02273718 Ry
     hartree contribution      =     350.77994927 Ry
     xc contribution           =     -30.73361821 Ry
     ewald contribution        =     268.46058250 Ry

     total energy              =    -114.41700873 Ry
     Harris-Foulkes estimate   =    -114.41711808 Ry
     estimated scf accuracy    <       0.00065266 Ry

     total magnetization       =     1.00 Bohr mag/cell
     absolute magnetization    =     1.65 Bohr mag/cell

     iteration # 25     ecut=   120.00 Ry     beta=0.70
     CG style diagonalization
     ethr =  7.64E-07,  avg # of iterations =  4.0

     negative rho (up, down):  5.663E-04 3.763E-07
 
     Magnetic moment per site:
     atom:    1    charge:    0.8435    magn:   -0.0053    constr:    0.0000
     atom:    2    charge:    0.8447    magn:   -0.0033    constr:    0.0000
     atom:    3    charge:    0.8454    magn:   -0.0097    constr:    0.0000
     atom:    4    charge:    0.8426    magn:   -0.0113    constr:    0.0000
     atom:    5    charge:    0.8439    magn:   -0.0090    constr:    0.0000
     atom:    6    charge:    0.8455    magn:   -0.0098    constr:    0.0000
     atom:    7    charge:    0.4978    magn:    0.0005    constr:    0.0000
     atom:    8    charge:    0.4978    magn:    0.0002    constr:    0.0000
     atom:    9    charge:    0.4960    magn:    0.0004    constr:    0.0000
     atom:   10    charge:    0.4960    magn:    0.0006    constr:    0.0000
     atom:   11    charge:    0.4958    magn:    0.0004    constr:    0.0000
     atom:   12    charge:    0.4960    magn:    0.0005    constr:    0.0000
     atom:   13    charge:    5.8051    magn:    1.1489    constr:    0.0000

     total cpu time spent up to now is      419.7 secs

     The total energy is the sum of the following terms:

     one-electron contribution =    -702.96622669 Ry
     hartree contribution      =     350.79105811 Ry
     xc contribution           =     -30.74110978 Ry
     ewald contribution        =     268.46058250 Ry

     total energy              =    -114.41650847 Ry
     Harris-Foulkes estimate   =    -114.41707866 Ry
     estimated scf accuracy    <       0.00018612 Ry

     total magnetization       =     1.00 Bohr mag/cell
     absolute magnetization    =     1.60 Bohr mag/cell

     iteration # 26     ecut=   120.00 Ry     beta=0.70
     CG style diagonalization
     ethr =  5.03E-07,  avg # of iterations =  4.5

     negative rho (up, down):  2.708E-05 5.886E-10
 
     Magnetic moment per site:
     atom:    1    charge:    0.8435    magn:   -0.0050    constr:    0.0000
     atom:    2    charge:    0.8446    magn:   -0.0031    constr:    0.0000
     atom:    3    charge:    0.8454    magn:   -0.0102    constr:    0.0000
     atom:    4    charge:    0.8426    magn:   -0.0105    constr:    0.0000
     atom:    5    charge:    0.8439    magn:   -0.0088    constr:    0.0000
     atom:    6    charge:    0.8455    magn:   -0.0102    constr:    0.0000
     atom:    7    charge:    0.4978    magn:    0.0003    constr:    0.0000
     atom:    8    charge:    0.4978    magn:    0.0002    constr:    0.0000
     atom:    9    charge:    0.4961    magn:    0.0004    constr:    0.0000
     atom:   10    charge:    0.4960    magn:    0.0005    constr:    0.0000
     atom:   11    charge:    0.4958    magn:    0.0004    constr:    0.0000
     atom:   12    charge:    0.4961    magn:    0.0004    constr:    0.0000
     atom:   13    charge:    5.8060    magn:    1.1396    constr:    0.0000

     total cpu time spent up to now is      430.8 secs

     The total energy is the sum of the following terms:

     one-electron contribution =    -702.93368122 Ry
     hartree contribution      =     350.78780249 Ry
     xc contribution           =     -30.73824804 Ry
     ewald contribution        =     268.46058250 Ry

     total energy              =    -114.41736386 Ry
     Harris-Foulkes estimate   =    -114.41734768 Ry
     estimated scf accuracy    <       0.00006275 Ry

     total magnetization       =     1.00 Bohr mag/cell
     absolute magnetization    =     1.58 Bohr mag/cell

     iteration # 27     ecut=   120.00 Ry     beta=0.70
     CG style diagonalization
     c_bands:  1 eigenvalues not converged
     c_bands:  1 eigenvalues not converged
     ethr =  1.70E-07,  avg # of iterations =  7.1

     negative rho (up, down):  3.965E-05 5.956E-10
 
     Magnetic moment per site:
     atom:    1    charge:    0.8435    magn:   -0.0050    constr:    0.0000
     atom:    2    charge:    0.8446    magn:   -0.0031    constr:    0.0000
     atom:    3    charge:    0.8454    magn:   -0.0102    constr:    0.0000
     atom:    4    charge:    0.8426    magn:   -0.0105    constr:    0.0000
     atom:    5    charge:    0.8439    magn:   -0.0088    constr:    0.0000
     atom:    6    charge:    0.8455    magn:   -0.0101    constr:    0.0000
     atom:    7    charge:    0.4978    magn:    0.0003    constr:    0.0000
     atom:    8    charge:    0.4978    magn:    0.0002    constr:    0.0000
     atom:    9    charge:    0.4961    magn:    0.0004    constr:    0.0000
     atom:   10    charge:    0.4960    magn:    0.0005    constr:    0.0000
     atom:   11    charge:    0.4958    magn:    0.0004    constr:    0.0000
     atom:   12    charge:    0.4961    magn:    0.0004    constr:    0.0000
     atom:   13    charge:    5.8060    magn:    1.1396    constr:    0.0000

     total cpu time spent up to now is      447.5 secs

     The total energy is the sum of the following terms:

     one-electron contribution =    -702.93847255 Ry
     hartree contribution      =     350.78729277 Ry
     xc contribution           =     -30.73786669 Ry
     ewald contribution        =     268.46058250 Ry

     total energy              =    -114.41737095 Ry
     Harris-Foulkes estimate   =    -114.41737631 Ry
     estimated scf accuracy    <       0.00003419 Ry

     total magnetization       =     1.00 Bohr mag/cell
     absolute magnetization    =     1.58 Bohr mag/cell

     iteration # 28     ecut=   120.00 Ry     beta=0.70
     CG style diagonalization
     c_bands:  1 eigenvalues not converged
     ethr =  9.24E-08,  avg # of iterations =  4.1

     negative rho (up, down):  8.770E-05 1.071E-09
 
     Magnetic moment per site:
     atom:    1    charge:    0.8435    magn:   -0.0049    constr:    0.0000
     atom:    2    charge:    0.8446    magn:   -0.0030    constr:    0.0000
     atom:    3    charge:    0.8453    magn:   -0.0100    constr:    0.0000
     atom:    4    charge:    0.8426    magn:   -0.0104    constr:    0.0000
     atom:    5    charge:    0.8441    magn:   -0.0086    constr:    0.0000
     atom:    6    charge:    0.8455    magn:   -0.0100    constr:    0.0000
     atom:    7    charge:    0.4978    magn:    0.0004    constr:    0.0000
     atom:    8    charge:    0.4978    magn:    0.0002    constr:    0.0000
     atom:    9    charge:    0.4961    magn:    0.0004    constr:    0.0000
     atom:   10    charge:    0.4960    magn:    0.0005    constr:    0.0000
     atom:   11    charge:    0.4957    magn:    0.0004    constr:    0.0000
     atom:   12    charge:    0.4961    magn:    0.0004    constr:    0.0000
     atom:   13    charge:    5.8064    magn:    1.1355    constr:    0.0000

     total cpu time spent up to now is      457.8 secs

     The total energy is the sum of the following terms:

     one-electron contribution =    -702.93908682 Ry
     hartree contribution      =     350.78699163 Ry
     xc contribution           =     -30.73705080 Ry
     ewald contribution        =     268.46058250 Ry

     total energy              =    -114.41738079 Ry
     Harris-Foulkes estimate   =    -114.41737191 Ry
     estimated scf accuracy    <       0.00003537 Ry

     total magnetization       =     1.00 Bohr mag/cell
     absolute magnetization    =     1.58 Bohr mag/cell

     iteration # 29     ecut=   120.00 Ry     beta=0.70
     CG style diagonalization
     c_bands:  1 eigenvalues not converged
     ethr =  9.24E-08,  avg # of iterations =  5.2

     negative rho (up, down):  1.147E-04 3.280E-09
 
     Magnetic moment per site:
     atom:    1    charge:    0.8434    magn:   -0.0048    constr:    0.0000
     atom:    2    charge:    0.8446    magn:   -0.0031    constr:    0.0000
     atom:    3    charge:    0.8453    magn:   -0.0098    constr:    0.0000
     atom:    4    charge:    0.8426    magn:   -0.0105    constr:    0.0000
     atom:    5    charge:    0.8441    magn:   -0.0087    constr:    0.0000
     atom:    6    charge:    0.8455    magn:   -0.0097    constr:    0.0000
     atom:    7    charge:    0.4978    magn:    0.0004    constr:    0.0000
     atom:    8    charge:    0.4978    magn:    0.0002    constr:    0.0000
     atom:    9    charge:    0.4961    magn:    0.0004    constr:    0.0000
     atom:   10    charge:    0.4960    magn:    0.0006    constr:    0.0000
     atom:   11    charge:    0.4957    magn:    0.0004    constr:    0.0000
     atom:   12    charge:    0.4961    magn:    0.0004    constr:    0.0000
     atom:   13    charge:    5.8060    magn:    1.1332    constr:    0.0000

     total cpu time spent up to now is      470.6 secs

     The total energy is the sum of the following terms:

     one-electron contribution =    -702.94294194 Ry
     hartree contribution      =     350.78409771 Ry
     xc contribution           =     -30.73752261 Ry
     ewald contribution        =     268.46058250 Ry

     total energy              =    -114.41738129 Ry
     Harris-Foulkes estimate   =    -114.41738681 Ry
     estimated scf accuracy    <       0.00004436 Ry

     total magnetization       =     1.00 Bohr mag/cell
     absolute magnetization    =     1.58 Bohr mag/cell

     iteration # 30     ecut=   120.00 Ry     beta=0.70
     CG style diagonalization
     ethr =  9.24E-08,  avg # of iterations =  4.8

     negative rho (up, down):  9.414E-05 3.989E-09
 
     Magnetic moment per site:
     atom:    1    charge:    0.8434    magn:   -0.0047    constr:    0.0000
     atom:    2    charge:    0.8447    magn:   -0.0032    constr:    0.0000
     atom:    3    charge:    0.8454    magn:   -0.0098    constr:    0.0000
     atom:    4    charge:    0.8426    magn:   -0.0104    constr:    0.0000
     atom:    5    charge:    0.8441    magn:   -0.0087    constr:    0.0000
     atom:    6    charge:    0.8455    magn:   -0.0097    constr:    0.0000
     atom:    7    charge:    0.4978    magn:    0.0004    constr:    0.0000
     atom:    8    charge:    0.4978    magn:    0.0002    constr:    0.0000
     atom:    9    charge:    0.4961    magn:    0.0004    constr:    0.0000
     atom:   10    charge:    0.4960    magn:    0.0006    constr:    0.0000
     atom:   11    charge:    0.4957    magn:    0.0004    constr:    0.0000
     atom:   12    charge:    0.4961    magn:    0.0004    constr:    0.0000
     atom:   13    charge:    5.8061    magn:    1.1321    constr:    0.0000

     total cpu time spent up to now is      482.5 secs

     The total energy is the sum of the following terms:

     one-electron contribution =    -702.93573092 Ry
     hartree contribution      =     350.78489896 Ry
     xc contribution           =     -30.73777230 Ry
     ewald contribution        =     268.46058250 Ry

     total energy              =    -114.41743657 Ry
     Harris-Foulkes estimate   =    -114.41743006 Ry
     estimated scf accuracy    <       0.00001718 Ry

     total magnetization       =     1.00 Bohr mag/cell
     absolute magnetization    =     1.57 Bohr mag/cell

     iteration # 31     ecut=   120.00 Ry     beta=0.70
     CG style diagonalization
     ethr =  4.64E-08,  avg # of iterations =  4.1

     negative rho (up, down):  1.559E-05 4.551E-10
 
     Magnetic moment per site:
     atom:    1    charge:    0.8434    magn:   -0.0043    constr:    0.0000
     atom:    2    charge:    0.8447    magn:   -0.0032    constr:    0.0000
     atom:    3    charge:    0.8455    magn:   -0.0098    constr:    0.0000
     atom:    4    charge:    0.8425    magn:   -0.0099    constr:    0.0000
     atom:    5    charge:    0.8439    magn:   -0.0087    constr:    0.0000
     atom:    6    charge:    0.8456    magn:   -0.0096    constr:    0.0000
     atom:    7    charge:    0.4978    magn:    0.0004    constr:    0.0000
     atom:    8    charge:    0.4977    magn:    0.0002    constr:    0.0000
     atom:    9    charge:    0.4961    magn:    0.0004    constr:    0.0000
     atom:   10    charge:    0.4960    magn:    0.0005    constr:    0.0000
     atom:   11    charge:    0.4958    magn:    0.0004    constr:    0.0000
     atom:   12    charge:    0.4961    magn:    0.0004    constr:    0.0000
     atom:   13    charge:    5.8065    magn:    1.1264    constr:    0.0000

     total cpu time spent up to now is      492.7 secs

     The total energy is the sum of the following terms:

     one-electron contribution =    -702.93700085 Ry
     hartree contribution      =     350.78372750 Ry
     xc contribution           =     -30.73660234 Ry
     ewald contribution        =     268.46058250 Ry

     total energy              =    -114.41744331 Ry
     Harris-Foulkes estimate   =    -114.41745042 Ry
     estimated scf accuracy    <       0.00001843 Ry

     total magnetization       =     1.00 Bohr mag/cell
     absolute magnetization    =     1.57 Bohr mag/cell

     iteration # 32     ecut=   120.00 Ry     beta=0.70
     CG style diagonalization
     c_bands:  1 eigenvalues not converged
     c_bands:  1 eigenvalues not converged
     ethr =  4.64E-08,  avg # of iterations =  6.9

     negative rho (up, down):  2.970E-05 1.765E-10
 
     Magnetic moment per site:
     atom:    1    charge:    0.8434    magn:   -0.0042    constr:    0.0000
     atom:    2    charge:    0.8447    magn:   -0.0036    constr:    0.0000
     atom:    3    charge:    0.8455    magn:   -0.0096    constr:    0.0000
     atom:    4    charge:    0.8425    magn:   -0.0097    constr:    0.0000
     atom:    5    charge:    0.8439    magn:   -0.0090    constr:    0.0000
     atom:    6    charge:    0.8455    magn:   -0.0095    constr:    0.0000
     atom:    7    charge:    0.4979    magn:    0.0003    constr:    0.0000
     atom:    8    charge:    0.4977    magn:    0.0002    constr:    0.0000
     atom:    9    charge:    0.4961    magn:    0.0004    constr:    0.0000
     atom:   10    charge:    0.4960    magn:    0.0005    constr:    0.0000
     atom:   11    charge:    0.4958    magn:    0.0004    constr:    0.0000
     atom:   12    charge:    0.4961    magn:    0.0004    constr:    0.0000
     atom:   13    charge:    5.8062    magn:    1.1275    constr:    0.0000

     total cpu time spent up to now is      509.0 secs

     The total energy is the sum of the following terms:

     one-electron contribution =    -702.93988339 Ry
     hartree contribution      =     350.78399625 Ry
     xc contribution           =     -30.73759933 Ry
     ewald contribution        =     268.46058250 Ry

     total energy              =    -114.41744656 Ry
     Harris-Foulkes estimate   =    -114.41747709 Ry
     estimated scf accuracy    <       0.00002194 Ry

     total magnetization       =     1.00 Bohr mag/cell
     absolute magnetization    =     1.57 Bohr mag/cell

     iteration # 33     ecut=   120.00 Ry     beta=0.70
     CG style diagonalization
     ethr =  4.64E-08,  avg # of iterations =  5.2

     negative rho (up, down):  1.286E-06 4.513E-08
 
     Magnetic moment per site:
     atom:    1    charge:    0.8433    magn:   -0.0037    constr:    0.0000
     atom:    2    charge:    0.8449    magn:   -0.0048    constr:    0.0000
     atom:    3    charge:    0.8457    magn:   -0.0092    constr:    0.0000
     atom:    4    charge:    0.8424    magn:   -0.0086    constr:    0.0000
     atom:    5    charge:    0.8436    magn:   -0.0102    constr:    0.0000
     atom:    6    charge:    0.8455    magn:   -0.0091    constr:    0.0000
     atom:    7    charge:    0.4980    magn:    0.0000    constr:    0.0000
     atom:    8    charge:    0.4976    magn:    0.0002    constr:    0.0000
     atom:    9    charge:    0.4960    magn:    0.0003    constr:    0.0000
     atom:   10    charge:    0.4961    magn:    0.0002    constr:    0.0000
     atom:   11    charge:    0.4959    magn:    0.0003    constr:    0.0000
     atom:   12    charge:    0.4960    magn:    0.0003    constr:    0.0000
     atom:   13    charge:    5.8056    magn:    1.1294    constr:    0.0000

     total cpu time spent up to now is      521.7 secs

     The total energy is the sum of the following terms:

     one-electron contribution =    -702.93787378 Ry
     hartree contribution      =     350.78471797 Ry
     xc contribution           =     -30.73941980 Ry
     ewald contribution        =     268.46058250 Ry

     total energy              =    -114.41693883 Ry
     Harris-Foulkes estimate   =    -114.41750658 Ry
     estimated scf accuracy    <       0.00001372 Ry

     total magnetization       =     1.00 Bohr mag/cell
     absolute magnetization    =     1.57 Bohr mag/cell

     iteration # 34     ecut=   120.00 Ry     beta=0.70
     CG style diagonalization
     c_bands:  2 eigenvalues not converged
     c_bands:  1 eigenvalues not converged
     ethr =  3.71E-08,  avg # of iterations =  7.8

     negative rho (up, down):  2.195E-06 3.873E-11
 
     Magnetic moment per site:
     atom:    1    charge:    0.8434    magn:   -0.0041    constr:    0.0000
     atom:    2    charge:    0.8448    magn:   -0.0041    constr:    0.0000
     atom:    3    charge:    0.8455    magn:   -0.0096    constr:    0.0000
     atom:    4    charge:    0.8424    magn:   -0.0092    constr:    0.0000
     atom:    5    charge:    0.8439    magn:   -0.0097    constr:    0.0000
     atom:    6    charge:    0.8456    magn:   -0.0095    constr:    0.0000
     atom:    7    charge:    0.4979    magn:    0.0002    constr:    0.0000
     atom:    8    charge:    0.4977    magn:    0.0002    constr:    0.0000
     atom:    9    charge:    0.4961    magn:    0.0003    constr:    0.0000
     atom:   10    charge:    0.4960    magn:    0.0003    constr:    0.0000
     atom:   11    charge:    0.4958    magn:    0.0004    constr:    0.0000
     atom:   12    charge:    0.4961    magn:    0.0003    constr:    0.0000
     atom:   13    charge:    5.8059    magn:    1.1308    constr:    0.0000

     total cpu time spent up to now is      539.9 secs

     The total energy is the sum of the following terms:

     one-electron contribution =    -702.92812691 Ry
     hartree contribution      =     350.78583585 Ry
     xc contribution           =     -30.73663499 Ry
     ewald contribution        =     268.46058250 Ry

     total energy              =    -114.41729887 Ry
     Harris-Foulkes estimate   =    -114.41751789 Ry
     estimated scf accuracy    <       0.00002623 Ry

     total magnetization       =     1.00 Bohr mag/cell
     absolute magnetization    =     1.56 Bohr mag/cell

     iteration # 35     ecut=   120.00 Ry     beta=0.70
     CG style diagonalization
     c_bands:  1 eigenvalues not converged
     ethr =  3.71E-08,  avg # of iterations =  5.8

     negative rho (up, down):  7.600E-06 2.224E-11
 
     Magnetic moment per site:
     atom:    1    charge:    0.8433    magn:   -0.0039    constr:    0.0000
     atom:    2    charge:    0.8448    magn:   -0.0043    constr:    0.0000
     atom:    3    charge:    0.8455    magn:   -0.0096    constr:    0.0000
     atom:    4    charge:    0.8424    magn:   -0.0091    constr:    0.0000
     atom:    5    charge:    0.8440    magn:   -0.0099    constr:    0.0000
     atom:    6    charge:    0.8455    magn:   -0.0094    constr:    0.0000
     atom:    7    charge:    0.4979    magn:    0.0002    constr:    0.0000
     atom:    8    charge:    0.4976    magn:    0.0002    constr:    0.0000
     atom:    9    charge:    0.4961    magn:    0.0003    constr:    0.0000
     atom:   10    charge:    0.4960    magn:    0.0003    constr:    0.0000
     atom:   11    charge:    0.4958    magn:    0.0004    constr:    0.0000
     atom:   12    charge:    0.4961    magn:    0.0003    constr:    0.0000
     atom:   13    charge:    5.8059    magn:    1.1304    constr:    0.0000

     total cpu time spent up to now is      553.7 secs

     The total energy is the sum of the following terms:

     one-electron contribution =    -702.92978500 Ry
     hartree contribution      =     350.78594752 Ry
     xc contribution           =     -30.73805131 Ry
     ewald contribution        =     268.46058250 Ry

     total energy              =    -114.41745538 Ry
     Harris-Foulkes estimate   =    -114.41752694 Ry
     estimated scf accuracy    <       0.00000787 Ry

     total magnetization       =     1.00 Bohr mag/cell
     absolute magnetization    =     1.57 Bohr mag/cell

     iteration # 36     ecut=   120.00 Ry     beta=0.70
     CG style diagonalization
     c_bands:  1 eigenvalues not converged
     c_bands:  1 eigenvalues not converged
     ethr =  2.13E-08,  avg # of iterations =  6.4

     negative rho (up, down):  9.453E-08 7.968E-12
 
     Magnetic moment per site:
     atom:    1    charge:    0.8433    magn:   -0.0039    constr:    0.0000
     atom:    2    charge:    0.8448    magn:   -0.0044    constr:    0.0000
     atom:    3    charge:    0.8455    magn:   -0.0097    constr:    0.0000
     atom:    4    charge:    0.8424    magn:   -0.0091    constr:    0.0000
     atom:    5    charge:    0.8440    magn:   -0.0100    constr:    0.0000
     atom:    6    charge:    0.8455    magn:   -0.0095    constr:    0.0000
     atom:    7    charge:    0.4979    magn:    0.0002    constr:    0.0000
     atom:    8    charge:    0.4976    magn:    0.0002    constr:    0.0000
     atom:    9    charge:    0.4961    magn:    0.0003    constr:    0.0000
     atom:   10    charge:    0.4960    magn:    0.0003    constr:    0.0000
     atom:   11    charge:    0.4957    magn:    0.0004    constr:    0.0000
     atom:   12    charge:    0.4961    magn:    0.0003    constr:    0.0000
     atom:   13    charge:    5.8057    magn:    1.1326    constr:    0.0000

     total cpu time spent up to now is      568.9 secs

     The total energy is the sum of the following terms:

     one-electron contribution =    -702.93152551 Ry
     hartree contribution      =     350.78660948 Ry
     xc contribution           =     -30.73788926 Ry
     ewald contribution        =     268.46058250 Ry

     total energy              =    -114.41752752 Ry
     Harris-Foulkes estimate   =    -114.41753743 Ry
     estimated scf accuracy    <       0.00000373 Ry

     total magnetization       =     1.00 Bohr mag/cell
     absolute magnetization    =     1.57 Bohr mag/cell

     iteration # 37     ecut=   120.00 Ry     beta=0.70
     CG style diagonalization
     c_bands:  2 eigenvalues not converged
     c_bands:  2 eigenvalues not converged
     ethr =  1.01E-08,  avg # of iterations =  7.1
 
     Magnetic moment per site:
     atom:    1    charge:    0.8433    magn:   -0.0039    constr:    0.0000
     atom:    2    charge:    0.8448    magn:   -0.0043    constr:    0.0000
     atom:    3    charge:    0.8455    magn:   -0.0098    constr:    0.0000
     atom:    4    charge:    0.8424    magn:   -0.0092    constr:    0.0000
     atom:    5    charge:    0.8440    magn:   -0.0100    constr:    0.0000
     atom:    6    charge:    0.8455    magn:   -0.0096    constr:    0.0000
     atom:    7    charge:    0.4979    magn:    0.0002    constr:    0.0000
     atom:    8    charge:    0.4976    magn:    0.0002    constr:    0.0000
     atom:    9    charge:    0.4961    magn:    0.0004    constr:    0.0000
     atom:   10    charge:    0.4960    magn:    0.0003    constr:    0.0000
     atom:   11    charge:    0.4958    magn:    0.0004    constr:    0.0000
     atom:   12    charge:    0.4961    magn:    0.0003    constr:    0.0000
     atom:   13    charge:    5.8057    magn:    1.1330    constr:    0.0000

     total cpu time spent up to now is      585.6 secs

     The total energy is the sum of the following terms:

     one-electron contribution =    -702.92927162 Ry
     hartree contribution      =     350.78681185 Ry
     xc contribution           =     -30.73784321 Ry
     ewald contribution        =     268.46058250 Ry

     total energy              =    -114.41753910 Ry
     Harris-Foulkes estimate   =    -114.41753895 Ry
     estimated scf accuracy    <       0.00000101 Ry

     total magnetization       =     1.00 Bohr mag/cell
     absolute magnetization    =     1.57 Bohr mag/cell

     iteration # 38     ecut=   120.00 Ry     beta=0.70
     CG style diagonalization
     c_bands:  2 eigenvalues not converged
     c_bands:  1 eigenvalues not converged
     ethr =  2.73E-09,  avg # of iterations =  6.5
 
     Magnetic moment per site:
     atom:    1    charge:    0.8433    magn:   -0.0040    constr:    0.0000
     atom:    2    charge:    0.8448    magn:   -0.0041    constr:    0.0000
     atom:    3    charge:    0.8455    magn:   -0.0099    constr:    0.0000
     atom:    4    charge:    0.8425    magn:   -0.0095    constr:    0.0000
     atom:    5    charge:    0.8439    magn:   -0.0097    constr:    0.0000
     atom:    6    charge:    0.8455    magn:   -0.0098    constr:    0.0000
     atom:    7    charge:    0.4979    magn:    0.0002    constr:    0.0000
[...]
 
     Magnetic moment per site:
     atom:    1    charge:    0.8433    magn:   -0.0040    constr:    0.0000
     atom:    2    charge:    0.8448    magn:   -0.0040    constr:    0.0000
     atom:    3    charge:    0.8455    magn:   -0.0100    constr:    0.0000
     atom:    4    charge:    0.8424    magn:   -0.0095    constr:    0.0000
     atom:    5    charge:    0.8439    magn:   -0.0095    constr:    0.0000
     atom:    6    charge:    0.8455    magn:   -0.0100    constr:    0.0000
     atom:    7    charge:    0.4979    magn:    0.0002    constr:    0.0000
     atom:    8    charge:    0.4977    magn:    0.0002    constr:    0.0000
     atom:    9    charge:    0.4961    magn:    0.0004    constr:    0.0000
     atom:   10    charge:    0.4960    magn:    0.0004    constr:    0.0000
     atom:   11    charge:    0.4958    magn:    0.0004    constr:    0.0000
     atom:   12    charge:    0.4961    magn:    0.0004    constr:    0.0000
     atom:   13    charge:    5.8059    magn:    1.1338    constr:    0.0000

     total cpu time spent up to now is      938.8 secs

     The total energy is the sum of the following terms:

     one-electron contribution =    -702.90222590 Ry
     hartree contribution      =     350.78591564 Ry
     xc contribution           =     -30.73757903 Ry
     ewald contribution        =     268.46058250 Ry

     total energy              =    -114.41461055 Ry
     Harris-Foulkes estimate   =    -114.41461640 Ry
     estimated scf accuracy    <       0.00003832 Ry

     total magnetization       =     1.00 Bohr mag/cell
     absolute magnetization    =     1.56 Bohr mag/cell

     iteration #  3     ecut=   120.00 Ry     beta=0.70
     CG style diagonalization
     ethr =  2.67E-09,  avg # of iterations =  3.6
 
     Magnetic moment per site:
     atom:    1    charge:    0.8433    magn:   -0.0040    constr:    0.0000
     atom:    2    charge:    0.8448    magn:   -0.0040    constr:    0.0000
     atom:    3    charge:    0.8455    magn:   -0.0100    constr:    0.0000
     atom:    4    charge:    0.8424    magn:   -0.0095    constr:    0.0000
     atom:    5    charge:    0.8439    magn:   -0.0095    constr:    0.0000
     atom:    6    charge:    0.8455    magn:   -0.0100    constr:    0.0000
     atom:    7    charge:    0.4979    magn:    0.0002    constr:    0.0000
     atom:    8    charge:    0.4977    magn:    0.0002    constr:    0.0000
     atom:    9    charge:    0.4961    magn:    0.0004    constr:    0.0000
     atom:   10    charge:    0.4960    magn:    0.0004    constr:    0.0000
     atom:   11    charge:    0.4958    magn:    0.0004    constr:    0.0000
     atom:   12    charge:    0.4961    magn:    0.0004    constr:    0.0000
     atom:   13    charge:    5.8059    magn:    1.1338    constr:    0.0000

     total cpu time spent up to now is      947.9 secs

     The total energy is the sum of the following terms:

     one-electron contribution =    -702.92727792 Ry
     hartree contribution      =     350.78651284 Ry
     xc contribution           =     -30.73763573 Ry
     ewald contribution        =     268.46058250 Ry

     total energy              =    -114.41461346 Ry
     Harris-Foulkes estimate   =    -114.41461362 Ry
     estimated scf accuracy    <       0.00000064 Ry

     total magnetization       =     1.00 Bohr mag/cell
     absolute magnetization    =     1.57 Bohr mag/cell

     iteration #  4     ecut=   120.00 Ry     beta=0.70
     CG style diagonalization
     ethr =  1.72E-09,  avg # of iterations =  3.1
 
     Magnetic moment per site:
     atom:    1    charge:    0.8433    magn:   -0.0040    constr:    0.0000
     atom:    2    charge:    0.8448    magn:   -0.0040    constr:    0.0000
     atom:    3    charge:    0.8455    magn:   -0.0100    constr:    0.0000
     atom:    4    charge:    0.8425    magn:   -0.0095    constr:    0.0000
     atom:    5    charge:    0.8440    magn:   -0.0095    constr:    0.0000
     atom:    6    charge:    0.8455    magn:   -0.0100    constr:    0.0000
     atom:    7    charge:    0.4979    magn:    0.0002    constr:    0.0000
     atom:    8    charge:    0.4976    magn:    0.0002    constr:    0.0000
     atom:    9    charge:    0.4961    magn:    0.0004    constr:    0.0000
     atom:   10    charge:    0.4960    magn:    0.0004    constr:    0.0000
     atom:   11    charge:    0.4958    magn:    0.0004    constr:    0.0000
     atom:   12    charge:    0.4961    magn:    0.0004    constr:    0.0000
     atom:   13    charge:    5.8058    magn:    1.1338    constr:    0.0000

     total cpu time spent up to now is      955.8 secs

     End of self-consistent calculation

 ------ SPIN UP ------------


          k = 0.0000 0.0000 0.0000 (****** PWs)   bands (ev):

   -25.3304 -22.5901 -22.5439 -19.5780 -19.0129 -19.0065 -17.1762 -15.5059
   -15.0607 -14.5219 -14.4867 -13.2357 -12.5071 -12.5059 -10.5586 -10.5031
    -8.0655  -6.7435  -6.7313  -5.4298  -5.4024  -5.3300  -4.9719  -4.9615
    -4.5351  -4.5039  -4.5010  -4.1237  -4.1099  -4.0712  -3.9255  -3.8727
    -3.7452  -3.7419  -3.7046  -3.6669  -3.6515  -3.5047  -3.4256  -3.3665

     occupation numbers 
     1.0000   1.0000   1.0000   1.0000   1.0000   1.0000   1.0000   1.0000
     1.0000   1.0000   1.0000   1.0000   1.0000   1.0000   1.0000   1.0000
     1.0000   1.0000   1.0000   0.0000   0.0000   0.0000   0.0000   0.0000
     0.0000   0.0000   0.0000   0.0000   0.0000   0.0000   0.0000   0.0000
     0.0000   0.0000   0.0000   0.0000   0.0000   0.0000   0.0000   0.0000

 ------ SPIN DOWN ----------


          k = 0.0000 0.0000 0.0000 (****** PWs)   bands (ev):

   -25.3704 -22.6324 -22.5976 -19.0536 -19.0524 -18.0184 -17.1913 -15.5411
   -15.0794 -14.5322 -14.5003 -13.3384 -12.5224 -12.5196 -10.6684 -10.6459
    -6.1420  -6.1172  -5.5119  -5.4942  -5.3874  -5.3374  -5.0399  -5.0049
    -4.5957  -4.5637  -4.5611  -4.1888  -4.1548  -4.1040  -3.9801  -3.9260
    -3.7877  -3.7755  -3.7461  -3.7110  -3.6968  -3.5387  -3.4623  -3.4037

     occupation numbers 
     1.0000   1.0000   1.0000   1.0000   1.0000   1.0000   1.0000   1.0000
     1.0000   1.0000   1.0000   1.0000   1.0000   1.0000   1.0000   1.0000
     1.0000   1.0000   0.0000   0.0000   0.0000   0.0000   0.0000   0.0000
     0.0000   0.0000   0.0000   0.0000   0.0000   0.0000   0.0000   0.0000
     0.0000   0.0000   0.0000   0.0000   0.0000   0.0000   0.0000   0.0000

     highest occupied, lowest unoccupied level (ev):    -6.1172   -5.5119

     The total energy is the sum of the following terms:

     one-electron contribution =    -702.92564349 Ry
     hartree contribution      =     350.78819254 Ry
     xc contribution           =     -30.73774506 Ry
     ewald contribution        =     268.46058250 Ry

!    total energy              =    -114.41461352 Ry
     Harris-Foulkes estimate   =    -114.41461352 Ry
     estimated scf accuracy    <       0.00000002 Ry

     The total energy is the sum of the following terms:

     one-electron contribution =    -702.92564349 Ry
     hartree contribution      =     350.78819254 Ry
     xc contribution           =     -30.73774506 Ry
     ewald contribution        =     268.46058250 Ry

     total magnetization       =     1.00 Bohr mag/cell
     absolute magnetization    =     1.57 Bohr mag/cell

     convergence has been achieved in   4 iterations
 
     Using Hirshfeld
        Amplitude [Ry a.u.] : -3.8766E-01
        Acceptor Fragment start :          13
        Acceptor Fragment end   :          13
        Donor Fragment start :           1
        Donor Fragment end   :          12
 
 
     Using Hirshfeld
        Amplitude [Ry a.u.] : -3.8766E-01
        Acceptor Fragment start :          13
        Acceptor Fragment end   :          13
        Donor Fragment start :           1
        Donor Fragment end   :          12
 
     E field correction              :  0.9303948136316635E+01 Ry    
 
     Donor charge                    :     -0.3497925063849969 e     
     Acceptor charge                 :      0.6506083376399676 e     
     Difference of charges           :     -1.0004008440250232 e     
 
     epcdft_thr                      :  0.1000000000000000E-03 e     
     Surplus(+)/deficit(-) charge    : -0.4008440250231615E-03 e     
 
     -----------------------------------------------
 
                      SCF converged but...
 
     electron localization condition NOT satisfied
     restarting scf with different applied potential
 
     New field Amp                   : -0.3876471233207610E+00 Ry    
     charge density from previous step
 
     Using Hirshfeld
        Amplitude [Ry a.u.] : -3.8765E-01
        Acceptor Fragment start :          13
        Acceptor Fragment end   :          13
        Donor Fragment start :           1
        Donor Fragment end   :          12
 

     total cpu time spent up to now is      979.8 secs

     per-process dynamical memory:    81.9 Mb

     Self-consistent Calculation

     iteration #  1     ecut=   120.00 Ry     beta=0.70
     CG style diagonalization
     ethr =  1.72E-09,  avg # of iterations =  2.8
 
     Magnetic moment per site:
     atom:    1    charge:    0.8433    magn:   -0.0039    constr:    0.0000
     atom:    2    charge:    0.8448    magn:   -0.0040    constr:    0.0000
     atom:    3    charge:    0.8455    magn:   -0.0100    constr:    0.0000
     atom:    4    charge:    0.8424    magn:   -0.0095    constr:    0.0000
     atom:    5    charge:    0.8439    magn:   -0.0095    constr:    0.0000
     atom:    6    charge:    0.8455    magn:   -0.0100    constr:    0.0000
     atom:    7    charge:    0.4979    magn:    0.0002    constr:    0.0000
     atom:    8    charge:    0.4976    magn:    0.0002    constr:    0.0000
     atom:    9    charge:    0.4961    magn:    0.0004    constr:    0.0000
     atom:   10    charge:    0.4960    magn:    0.0004    constr:    0.0000
     atom:   11    charge:    0.4958    magn:    0.0004    constr:    0.0000
     atom:   12    charge:    0.4961    magn:    0.0004    constr:    0.0000
     atom:   13    charge:    5.8069    magn:    1.1330    constr:    0.0000

     total cpu time spent up to now is      989.0 secs

     The total energy is the sum of the following terms:

     one-electron contribution =    -702.91854975 Ry
     hartree contribution      =     350.78342723 Ry
     xc contribution           =     -30.73776146 Ry
     ewald contribution        =     268.46058250 Ry

     total energy              =    -114.41435043 Ry
     Harris-Foulkes estimate   =    -114.41435188 Ry
     estimated scf accuracy    <       0.00000184 Ry

     total magnetization       =     1.00 Bohr mag/cell
     absolute magnetization    =     1.56 Bohr mag/cell

     iteration #  2     ecut=   120.00 Ry     beta=0.70
     CG style diagonalization
     ethr =  4.98E-09,  avg # of iterations =  4.3
 
     Magnetic moment per site:
     atom:    1    charge:    0.8433    magn:   -0.0040    constr:    0.0000
     atom:    2    charge:    0.8448    magn:   -0.0040    constr:    0.0000
     atom:    3    charge:    0.8455    magn:   -0.0100    constr:    0.0000
     atom:    4    charge:    0.8425    magn:   -0.0095    constr:    0.0000
     atom:    5    charge:    0.8439    magn:   -0.0095    constr:    0.0000
     atom:    6    charge:    0.8455    magn:   -0.0100    constr:    0.0000
     atom:    7    charge:    0.4979    magn:    0.0002    constr:    0.0000
     atom:    8    charge:    0.4976    magn:    0.0002    constr:    0.0000
     atom:    9    charge:    0.4961    magn:    0.0004    constr:    0.0000
     atom:   10    charge:    0.4960    magn:    0.0004    constr:    0.0000
     atom:   11    charge:    0.4958    magn:    0.0004    constr:    0.0000
     atom:   12    charge:    0.4961    magn:    0.0004    constr:    0.0000
     atom:   13    charge:    5.8059    magn:    1.1337    constr:    0.0000

     total cpu time spent up to now is      999.5 secs

     The total energy is the sum of the following terms:

     one-electron contribution =    -702.96433371 Ry
     hartree contribution      =     350.78686306 Ry
     xc contribution           =     -30.73765797 Ry
     ewald contribution        =     268.46058250 Ry

     total energy              =    -114.41434466 Ry
     Harris-Foulkes estimate   =    -114.41435937 Ry
     estimated scf accuracy    <       0.00010669 Ry

     total magnetization       =     1.00 Bohr mag/cell
     absolute magnetization    =     1.59 Bohr mag/cell

     iteration #  3     ecut=   120.00 Ry     beta=0.70
     CG style diagonalization
     ethr =  4.98E-09,  avg # of iterations =  3.8
 
     Magnetic moment per site:
     atom:    1    charge:    0.8433    magn:   -0.0040    constr:    0.0000
     atom:    2    charge:    0.8448    magn:   -0.0040    constr:    0.0000
     atom:    3    charge:    0.8455    magn:   -0.0100    constr:    0.0000
     atom:    4    charge:    0.8425    magn:   -0.0095    constr:    0.0000
     atom:    5    charge:    0.8440    magn:   -0.0095    constr:    0.0000
     atom:    6    charge:    0.8455    magn:   -0.0100    constr:    0.0000
     atom:    7    charge:    0.4979    magn:    0.0002    constr:    0.0000
     atom:    8    charge:    0.4976    magn:    0.0002    constr:    0.0000
     atom:    9    charge:    0.4961    magn:    0.0004    constr:    0.0000
     atom:   10    charge:    0.4960    magn:    0.0004    constr:    0.0000
     atom:   11    charge:    0.4958    magn:    0.0004    constr:    0.0000
     atom:   12    charge:    0.4961    magn:    0.0004    constr:    0.0000
     atom:   13    charge:    5.8060    magn:    1.1336    constr:    0.0000

     total cpu time spent up to now is     1008.9 secs

     End of self-consistent calculation

 ------ SPIN UP ------------


          k = 0.0000 0.0000 0.0000 (****** PWs)   bands (ev):

   -25.3301 -22.5898 -22.5437 -19.5780 -19.0126 -19.0062 -17.1759 -15.5056
   -15.0605 -14.5216 -14.4865 -13.2354 -12.5069 -12.5056 -10.5583 -10.5029
    -8.0655  -6.7435  -6.7312  -5.4295  -5.4022  -5.3299  -4.9717  -4.9614
    -4.5349  -4.5037  -4.5008  -4.1235  -4.1098  -4.0710  -3.9253  -3.8726
    -3.7450  -3.7417  -3.7044  -3.6667  -3.6513  -3.5045  -3.4254  -3.3663

     occupation numbers 
     1.0000   1.0000   1.0000   1.0000   1.0000   1.0000   1.0000   1.0000
     1.0000   1.0000   1.0000   1.0000   1.0000   1.0000   1.0000   1.0000
     1.0000   1.0000   1.0000   0.0000   0.0000   0.0000   0.0000   0.0000
     0.0000   0.0000   0.0000   0.0000   0.0000   0.0000   0.0000   0.0000
     0.0000   0.0000   0.0000   0.0000   0.0000   0.0000   0.0000   0.0000

 ------ SPIN DOWN ----------


          k = 0.0000 0.0000 0.0000 (****** PWs)   bands (ev):

   -25.3701 -22.6320 -22.5974 -19.0534 -19.0522 -18.0185 -17.1911 -15.5408
   -15.0791 -14.5319 -14.5001 -13.3381 -12.5222 -12.5193 -10.6681 -10.6457
    -6.1420  -6.1173  -5.5117  -5.4939  -5.3872  -5.3374  -5.0396  -5.0046
    -4.5954  -4.5634  -4.5608  -4.1885  -4.1545  -4.1037  -3.9797  -3.9256
    -3.7874  -3.7753  -3.7459  -3.7106  -3.6965  -3.5384  -3.4621  -3.4034

     occupation numbers 
     1.0000   1.0000   1.0000   1.0000   1.0000   1.0000   1.0000   1.0000
     1.0000   1.0000   1.0000   1.0000   1.0000   1.0000   1.0000   1.0000
     1.0000   1.0000   0.0000   0.0000   0.0000   0.0000   0.0000   0.0000
     0.0000   0.0000   0.0000   0.0000   0.0000   0.0000   0.0000   0.0000
     0.0000   0.0000   0.0000   0.0000   0.0000   0.0000   0.0000   0.0000

     highest occupied, lowest unoccupied level (ev):    -6.1173   -5.5117

     The total energy is the sum of the following terms:

     one-electron contribution =    -702.92579680 Ry
     hartree contribution      =     350.78871707 Ry
     xc contribution           =     -30.73785449 Ry
     ewald contribution        =     268.46058250 Ry

!    total energy              =    -114.41435172 Ry
     Harris-Foulkes estimate   =    -114.41435176 Ry
     estimated scf accuracy    <       0.00000004 Ry

     The total energy is the sum of the following terms:

     one-electron contribution =    -702.92579680 Ry
     hartree contribution      =     350.78871707 Ry
     xc contribution           =     -30.73785449 Ry
     ewald contribution        =     268.46058250 Ry

     total magnetization       =     1.00 Bohr mag/cell
     absolute magnetization    =     1.57 Bohr mag/cell

     convergence has been achieved in   3 iterations
 
     Using Hirshfeld
        Amplitude [Ry a.u.] : -3.8765E-01
        Acceptor Fragment start :          13
        Acceptor Fragment end   :          13
        Donor Fragment start :           1
        Donor Fragment end   :          12
 
 
     Using Hirshfeld
        Amplitude [Ry a.u.] : -3.8765E-01
        Acceptor Fragment start :          13
        Acceptor Fragment end   :          13
        Donor Fragment start :           1
        Donor Fragment end   :          12
 
     E field correction              :  0.9303519935285868E+01 Ry    
 
     Donor charge                    :     -0.3495758664922270 e     
     Acceptor charge                 :      0.6503956942089433 e     
     Difference of charges           :     -0.9999715607012085 e     

     Writing output data file right.save
 
     init_run     :     72.33s CPU     72.33s WALL (       1 calls)
     electrons    :    861.95s CPU    861.95s WALL (       6 calls)
     update_pot   :      6.70s CPU      6.70s WALL (       5 calls)

     Called by init_run:
     wfcinit      :      9.02s CPU      9.02s WALL (       1 calls)
     potinit      :      3.01s CPU      3.01s WALL (       1 calls)

     Called by electrons:
     c_bands      :    650.28s CPU    650.28s WALL (      63 calls)
     sum_band     :     36.22s CPU     36.22s WALL (      63 calls)
     v_of_rho     :     91.89s CPU     91.89s WALL (      69 calls)
     v_h          :      1.54s CPU      1.54s WALL (      69 calls)
     v_xc         :     90.35s CPU     90.36s WALL (      69 calls)
     mix_rho      :      4.50s CPU      4.50s WALL (      63 calls)

     Called by c_bands:
     init_us_2    :      2.51s CPU      2.51s WALL (     254 calls)
     rcgdiagg     :    573.25s CPU    573.25s WALL (     126 calls)
     wfcrot       :     79.52s CPU     79.52s WALL (     116 calls)

     Called by sum_band:

     Called by *cgdiagg:
     h_psi        :    564.92s CPU    564.91s WALL (   21703 calls)
     rdiaghg      :      8.28s CPU      8.28s WALL (     116 calls)
     rdiaghg:chol :      0.65s CPU      0.65s WALL (     116 calls)
     rdiaghg:inve :      0.11s CPU      0.11s WALL (     116 calls)
     rdiaghg:para :      0.62s CPU      0.62s WALL (     232 calls)

     Called by h_psi:
     h_psi:vloc   :    469.34s CPU    469.34s WALL (   21703 calls)
     h_psi:vnl    :     94.83s CPU     94.83s WALL (   21703 calls)
     add_vuspsi   :     59.58s CPU     59.60s WALL (   21703 calls)

     General routines
     calbec       :     46.20s CPU     46.25s WALL (   43290 calls)
     fft          :     82.35s CPU     82.35s WALL (    5171 calls)
     fftw         :    440.02s CPU    440.04s WALL (   50670 calls)
 
     Parallel routines
     fft_scatter  :    215.77s CPU    215.82s WALL (   55841 calls)
 
     PWSCF        : 18m51.21s CPU    18m51.21s WALL

 
   This run was terminated on:  17:29: 9  20Aug2015            

=------------------------------------------------------------------------------=
   JOB DONE.
=------------------------------------------------------------------------------=
2015-08-20 17:29:27.234 (INFO ) [0xfff9125c410] CET-40440-51771-128:1292281:ibm.runjob.client.Job: exited with status 0
2015-08-20 17:29:27.235 (INFO ) [0xfff9125c410] tatu.runjob.client: task exited with status 0
2015-08-20 17:29:27.235 (INFO ) [0xfff77f834e0] 9687:tatu.runjob.monitor: monitor terminating
2015-08-20 17:29:27.240 (INFO ) [0xfff9125c410] tatu.runjob.client: monitor completed
