2015-08-22 22:13:07.330 (INFO ) [0xfffb0b9c410] ibm.runjob.AbstractOptions: using properties file /bgsys/local/etc/bg.properties
2015-08-22 22:13:07.336 (INFO ) [0xfffb0b9c410] ibm.runjob.AbstractOptions: max open file descriptors: 65536
2015-08-22 22:13:07.337 (INFO ) [0xfffb0b9c410] ibm.runjob.AbstractOptions: core file limit: 18446744073709551615
2015-08-22 22:13:07.338 (INFO ) [0xfffb0b9c410] 21696:tatu.runjob.client: scheduler job id is 567207
2015-08-22 22:13:07.344 (INFO ) [0xfffa6f834e0] 21696:tatu.runjob.monitor: monitor started
2015-08-22 22:13:11.258 (INFO ) [0xfffa6f834e0] 21696:tatu.runjob.monitor: task record 1236888 created
2015-08-22 22:13:11.259 (INFO ) [0xfffb0b9c410] CET-20040-31371-128:21696:ibm.runjob.client.options.Parser: set local socket to runjob_mux from properties file
2015-08-22 22:13:14.098 (INFO ) [0xfffb0b9c410] CET-20040-31371-128:1295659:ibm.runjob.client.Job: job 1295659 started

     Program PWSCF v.5.1.1 starts on 22Aug2015 at 22:13:14 

     This program is part of the open-source Quantum ESPRESSO suite
     for quantum simulation of materials; please cite
         "P. Giannozzi et al., J. Phys.:Condens. Matter 21 395502 (2009);
          URL http://www.quantum-espresso.org", 
     in publications or presentations arising from this work. More details at
     http://www.quantum-espresso.org/quote

     Parallel version (MPI & OpenMP), running on    1024 processor cores
     Number of MPI processes:              1024
     Threads/MPI process:                     1
     R & G space division:  proc/nbgrp/npool/nimage =    1024
     Waiting for input...
     Reading input from standard input

     Current dimensions of program PWSCF are:
     Max number of different atomic species (ntypx) = 10
     Max number of k-points (npk) =  40000
     Max angular momentum in pseudopotentials (lmaxx) =  3
               file C.pbe-mt_fhi.UPF: wavefunction(s)  4f renormalized
               file H.pbe-mt_fhi.UPF: wavefunction(s)  2p 4f renormalized
               file Cl.pbe-mt_fhi.UPF: wavefunction(s)  4f renormalized

     gamma-point specific algorithms are used
     Message from routine setup:
     the system is metallic, specify occupations

     Subspace diagonalization in iterative solution of the eigenvalue problem:
     scalapack distributed-memory algorithm (size of sub-group: 22* 22 procs)

 
     Parallelization info
     --------------------
     sticks:   dense  smooth     PW     G-vecs:    dense   smooth      PW
     Min          38      38      8                 6028     6028     700
     Max          42      42     10                 6104     6104     786
     Sum       40945   40945  10229              6227117  6227117  778439
     Tot       20473   20473   5115
 
     Generating pointlists ...
     new r_m :   0.0224 (alat units)  0.8450 (a.u.) for type    1
     new r_m :   0.0224 (alat units)  0.8450 (a.u.) for type    2
     new r_m :   0.0635 (alat units)  2.4011 (a.u.) for type    3
2015-08-22 22:13:20.587 (INFO ) [0xfffa6f834e0] 21696:tatu.runjob.monitor: tracklib completed


     bravais-lattice index     =            1
     lattice parameter (alat)  =      37.7945  a.u.
     unit-cell volume          =   53986.6767 (a.u.)^3
     number of atoms/cell      =           13
     number of atomic types    =            3
     number of electrons       =        37.00 (up:  19.00, down:  18.00)
     number of Kohn-Sham states=           40
     kinetic-energy cutoff     =      90.0000  Ry
     charge density cutoff     =     360.0000  Ry
     convergence threshold     =      1.0E-12
     mixing beta               =       0.7000
     number of iterations used =            8  plain     mixing
     Exchange-correlation      = PBE ( 1  4  3  4 0 0)
     Assuming isolated system, Martyna-Tuckerman method


     celldm(1)=  37.794523  celldm(2)=   0.000000  celldm(3)=   0.000000
     celldm(4)=   0.000000  celldm(5)=   0.000000  celldm(6)=   0.000000

     crystal axes: (cart. coord. in units of alat)
               a(1) = (   1.000000   0.000000   0.000000 )  
               a(2) = (   0.000000   1.000000   0.000000 )  
               a(3) = (   0.000000   0.000000   1.000000 )  

     reciprocal axes: (cart. coord. in units 2 pi/alat)
               b(1) = (  1.000000  0.000000  0.000000 )  
               b(2) = (  0.000000  1.000000  0.000000 )  
               b(3) = (  0.000000  0.000000  1.000000 )  


     PseudoPot. # 1 for  C read from file:
     ./C.pbe-mt_fhi.UPF
     MD5 check sum: 058ca341f9d6d5327d9962fd88a91b65
     Pseudo is Norm-conserving, Zval =  4.0
     Generated using FHI98PP, converted with fhi2upf.x v.5.0.2
     Using radial grid of  461 points,  3 beta functions with: 
                l(1) =   0
                l(2) =   1
                l(3) =   3

     PseudoPot. # 2 for  H read from file:
     ./H.pbe-mt_fhi.UPF
     MD5 check sum: a19bd5488733b3d98581df861506e80d
     Pseudo is Norm-conserving, Zval =  1.0
     Generated using FHI98PP, converted with fhi2upf.x v.5.0.2
     Using radial grid of  387 points,  3 beta functions with: 
                l(1) =   0
                l(2) =   1
                l(3) =   3

     PseudoPot. # 3 for Cl read from file:
     ./Cl.pbe-mt_fhi.UPF
     MD5 check sum: 2690b95bbfe21454a1a3af22474751ef
     Pseudo is Norm-conserving, Zval =  7.0
     Generated using FHI98PP, converted with fhi2upf.x v.5.0.2
     Using radial grid of  503 points,  3 beta functions with: 
                l(1) =   0
                l(2) =   1
                l(3) =   3

     atomic species   valence    mass     pseudopotential
        C              4.00    12.01070      C( 1.00)
        H              1.00     1.00794      H( 1.00)
        Cl             7.00     1.00000     Cl( 1.00)

     Starting magnetic structure 
     atomic species   magnetization
        C            0.000
        H            0.000
        Cl           0.000

     No symmetry found


                                    s                        frac. trans.

      isym =  1     identity                                     

 cryst.   s( 1) = (     1          0          0      )
                  (     0          1          0      )
                  (     0          0          1      )

 cart.    s( 1) = (  1.0000000  0.0000000  0.0000000 )
                  (  0.0000000  1.0000000  0.0000000 )
                  (  0.0000000  0.0000000  1.0000000 )


     point group C_1 (1)    
     there are  1 classes
     the character table:

       E    
A      1.00

     the symmetry operations in each class:
     E        1

   Cartesian axes

     site n.     atom                  positions (alat units)
         1           C   tau(   1) = (   0.0000000   0.0698500   0.0000000  )
         2           C   tau(   2) = (   0.0604900   0.0349250   0.0000000  )
         3           C   tau(   3) = (   0.0604900  -0.0349250   0.0000000  )
         4           C   tau(   4) = (   0.0000000  -0.0698500   0.0000000  )
         5           C   tau(   5) = (  -0.0604900  -0.0349250   0.0000000  )
         6           C   tau(   6) = (  -0.0604900   0.0349250   0.0000000  )
         7           H   tau(   7) = (   0.0000000   0.1240500   0.0000000  )
         8           H   tau(   8) = (   0.1074300   0.0620250   0.0000000  )
         9           H   tau(   9) = (   0.1074300  -0.0620250   0.0000000  )
        10           H   tau(  10) = (   0.0000000  -0.1240500   0.0000000  )
        11           H   tau(  11) = (  -0.1074300  -0.0620250   0.0000000  )
        12           H   tau(  12) = (  -0.1074300   0.0620250   0.0000000  )
        13           Cl  tau(  13) = (   0.0302450   0.0523875   0.1500000  )

   Crystallographic axes

     site n.     atom                  positions (cryst. coord.)
         1           C   tau(   1) = (  0.0000000  0.0698500  0.0000000  )
         2           C   tau(   2) = (  0.0604900  0.0349250  0.0000000  )
         3           C   tau(   3) = (  0.0604900 -0.0349250  0.0000000  )
         4           C   tau(   4) = (  0.0000000 -0.0698500  0.0000000  )
         5           C   tau(   5) = ( -0.0604900 -0.0349250  0.0000000  )
         6           C   tau(   6) = ( -0.0604900  0.0349250  0.0000000  )
         7           H   tau(   7) = (  0.0000000  0.1240500  0.0000000  )
         8           H   tau(   8) = (  0.1074300  0.0620250  0.0000000  )
         9           H   tau(   9) = (  0.1074300 -0.0620250  0.0000000  )
        10           H   tau(  10) = (  0.0000000 -0.1240500  0.0000000  )
        11           H   tau(  11) = ( -0.1074300 -0.0620250  0.0000000  )
        12           H   tau(  12) = ( -0.1074300  0.0620250  0.0000000  )
        13           Cl  tau(  13) = (  0.0302450  0.0523875  0.1500000  )

     number of k points=     2
                       cart. coord. in units 2pi/alat
        k(    1) = (   0.0000000   0.0000000   0.0000000), wk =   1.0000000
        k(    2) = (   0.0000000   0.0000000   0.0000000), wk =   1.0000000

                       cryst. coord.
        k(    1) = (   0.0000000   0.0000000   0.0000000), wk =   1.0000000
        k(    2) = (   0.0000000   0.0000000   0.0000000), wk =   1.0000000

     Dense  grid:  3113559 G-vectors     FFT dimensions: ( 240, 240, 240)

     Largest allocated arrays     est. size (Mb)     dimensions
        Kohn-Sham Wavefunctions         0.24 Mb     (     389,   40)
        NL pseudopotentials             0.85 Mb     (     389,  143)
        Each V/rho on FFT grid          1.76 Mb     (   57600,   2)
        Each G-vector array             0.02 Mb     (    3052)
        G-vector shells                 0.01 Mb     (    1437)
     Largest temporary arrays     est. size (Mb)     dimensions
        Each subspace H/S matrix        0.00 Mb     (       1,    1)
        Each <psi_i|beta_j> matrix      0.04 Mb     (     143,   40)
        Arrays for rho mixing           7.03 Mb     (   57600,    8)
 
     Using Hirshfeld
        Amplitude [Ry a.u.] : -3.8911E-01
        Acceptor Fragment start :          13
        Acceptor Fragment end   :          13
        Donor Fragment start :           1
        Donor Fragment end   :          12
 

     Initial potential from superposition of free atoms
     Check: negative starting charge=(component1):   -0.001023
     Check: negative starting charge=(component2):   -0.001023

     starting charge   36.99968, renormalised to   37.00000

     negative rho (up, down):  1.023E-03 1.023E-03
     Starting wfc are  208 randomized atomic wfcs

     total cpu time spent up to now is       25.1 secs

     per-process dynamical memory:    63.4 Mb

     Self-consistent Calculation

     iteration #  1     ecut=    90.00 Ry     beta=0.70
     CG style diagonalization
     ethr =  1.00E-02,  avg # of iterations =  3.6

     negative rho (up, down):  2.007E-04 2.072E-04
 
     Magnetic moment per site:
     atom:    1    charge:    1.0225    magn:    0.0321    constr:    0.0000
     atom:    2    charge:    1.0234    magn:    0.0314    constr:    0.0000
     atom:    3    charge:    1.0222    magn:    0.0306    constr:    0.0000
     atom:    4    charge:    1.0205    magn:    0.0303    constr:    0.0000
     atom:    5    charge:    1.0213    magn:    0.0302    constr:    0.0000
     atom:    6    charge:    1.0219    magn:    0.0308    constr:    0.0000
     atom:    7    charge:    0.4446    magn:    0.0014    constr:    0.0000
     atom:    8    charge:    0.4449    magn:    0.0011    constr:    0.0000
     atom:    9    charge:    0.4444    magn:    0.0012    constr:    0.0000
     atom:   10    charge:    0.4443    magn:    0.0012    constr:    0.0000
     atom:   11    charge:    0.4445    magn:    0.0012    constr:    0.0000
     atom:   12    charge:    0.4443    magn:    0.0011    constr:    0.0000
     atom:   13    charge:    3.1677    magn:    0.0005    constr:    0.0000

     total cpu time spent up to now is       29.9 secs

     The total energy is the sum of the following terms:

     one-electron contribution =    -729.38779516 Ry
     hartree contribution      =     372.48802050 Ry
     xc contribution           =     -31.49780278 Ry
     ewald contribution        =     268.46058250 Ry

     total energy              =    -103.25170087 Ry
     Harris-Foulkes estimate   =    -117.36443286 Ry
     estimated scf accuracy    <      16.77148811 Ry

     total magnetization       =     1.00 Bohr mag/cell
     absolute magnetization    =     1.00 Bohr mag/cell

     iteration #  2     ecut=    90.00 Ry     beta=0.70
     CG style diagonalization
     ethr =  1.00E-02,  avg # of iterations =  9.8

     negative rho (up, down):  1.114E-04 1.253E-04
 
     Magnetic moment per site:
     atom:    1    charge:    0.8971    magn:    0.0317    constr:    0.0000
     atom:    2    charge:    0.8978    magn:    0.0312    constr:    0.0000
     atom:    3    charge:    0.8914    magn:    0.0275    constr:    0.0000
     atom:    4    charge:    0.8880    magn:    0.0262    constr:    0.0000
     atom:    5    charge:    0.8887    magn:    0.0261    constr:    0.0000
     atom:    6    charge:    0.8912    magn:    0.0275    constr:    0.0000
     atom:    7    charge:    0.4427    magn:    0.0061    constr:    0.0000
     atom:    8    charge:    0.4428    magn:    0.0059    constr:    0.0000
     atom:    9    charge:    0.4328    magn:    0.0029    constr:    0.0000
     atom:   10    charge:    0.4313    magn:    0.0020    constr:    0.0000
     atom:   11    charge:    0.4314    magn:    0.0019    constr:    0.0000
     atom:   12    charge:    0.4327    magn:    0.0028    constr:    0.0000
     atom:   13    charge:    5.4090    magn:    0.0044    constr:    0.0000

     total cpu time spent up to now is       40.6 secs

     The total energy is the sum of the following terms:

     one-electron contribution =    -567.05013548 Ry
     hartree contribution      =     347.57833570 Ry
     xc contribution           =     -30.26385797 Ry
     ewald contribution        =     268.46058250 Ry

     total energy              =     -85.75253244 Ry
     Harris-Foulkes estimate   =    -140.67350737 Ry
     estimated scf accuracy    <     204.36673714 Ry

     total magnetization       =     1.00 Bohr mag/cell
     absolute magnetization    =     1.11 Bohr mag/cell

     iteration #  3     ecut=    90.00 Ry     beta=0.70
     CG style diagonalization
     ethr =  1.00E-02,  avg # of iterations =  9.1

     negative rho (up, down):  4.162E-05 5.075E-05
 
     Magnetic moment per site:
     atom:    1    charge:    0.8806    magn:    0.0249    constr:    0.0000
     atom:    2    charge:    0.8795    magn:    0.0253    constr:    0.0000
     atom:    3    charge:    0.8759    magn:    0.0218    constr:    0.0000
     atom:    4    charge:    0.8740    magn:    0.0169    constr:    0.0000
     atom:    5    charge:    0.8741    magn:    0.0183    constr:    0.0000
     atom:    6    charge:    0.8780    magn:    0.0192    constr:    0.0000
     atom:    7    charge:    0.4632    magn:    0.0032    constr:    0.0000
     atom:    8    charge:    0.4630    magn:    0.0032    constr:    0.0000
     atom:    9    charge:    0.4593    magn:    0.0010    constr:    0.0000
     atom:   10    charge:    0.4613    magn:    0.0005    constr:    0.0000
     atom:   11    charge:    0.4609    magn:    0.0000    constr:    0.0000
     atom:   12    charge:    0.4596    magn:    0.0013    constr:    0.0000
     atom:   13    charge:    5.6327    magn:    0.2807    constr:    0.0000

     total cpu time spent up to now is       50.7 secs

     The total energy is the sum of the following terms:

     one-electron contribution =    -703.05344381 Ry
     hartree contribution      =     349.87118813 Ry
     xc contribution           =     -30.54139474 Ry
     ewald contribution        =     268.46058250 Ry

     total energy              =    -114.34469389 Ry
     Harris-Foulkes estimate   =    -114.48711651 Ry
     estimated scf accuracy    <       0.57020948 Ry

     total magnetization       =     1.00 Bohr mag/cell
     absolute magnetization    =     1.10 Bohr mag/cell

     iteration #  4     ecut=    90.00 Ry     beta=0.70
     CG style diagonalization
     ethr =  1.54E-03,  avg # of iterations =  4.2

     negative rho (up, down):  6.002E-05 5.204E-05
 
     Magnetic moment per site:
     atom:    1    charge:    0.8591    magn:    0.0140    constr:    0.0000
     atom:    2    charge:    0.8621    magn:    0.0130    constr:    0.0000
     atom:    3    charge:    0.8570    magn:    0.0117    constr:    0.0000
     atom:    4    charge:    0.8477    magn:    0.0106    constr:    0.0000
     atom:    5    charge:    0.8507    magn:    0.0106    constr:    0.0000
     atom:    6    charge:    0.8519    magn:    0.0126    constr:    0.0000
     atom:    7    charge:    0.4823    magn:    0.0012    constr:    0.0000
     atom:    8    charge:    0.4829    magn:    0.0015    constr:    0.0000
     atom:    9    charge:    0.4829    magn:   -0.0007    constr:    0.0000
     atom:   10    charge:    0.4840    magn:    0.0000    constr:    0.0000
     atom:   11    charge:    0.4839    magn:   -0.0005    constr:    0.0000
     atom:   12    charge:    0.4826    magn:   -0.0003    constr:    0.0000
     atom:   13    charge:    5.7339    magn:    0.5672    constr:    0.0000

     total cpu time spent up to now is       56.1 secs

     The total energy is the sum of the following terms:

     one-electron contribution =    -701.48818533 Ry
     hartree contribution      =     349.95770663 Ry
     xc contribution           =     -30.58821956 Ry
     ewald contribution        =     268.46058250 Ry

     total energy              =    -114.42314741 Ry
     Harris-Foulkes estimate   =    -114.45462687 Ry
     estimated scf accuracy    <       0.21007229 Ry

     total magnetization       =     1.00 Bohr mag/cell
     absolute magnetization    =     1.07 Bohr mag/cell

     iteration #  5     ecut=    90.00 Ry     beta=0.70
     CG style diagonalization
     ethr =  5.68E-04,  avg # of iterations =  3.1

     negative rho (up, down):  3.159E-04 1.472E-04
 
     Magnetic moment per site:
     atom:    1    charge:    0.8412    magn:    0.0055    constr:    0.0000
     atom:    2    charge:    0.8397    magn:    0.0043    constr:    0.0000
     atom:    3    charge:    0.8410    magn:    0.0045    constr:    0.0000
     atom:    4    charge:    0.8440    magn:    0.0046    constr:    0.0000
     atom:    5    charge:    0.8468    magn:    0.0042    constr:    0.0000
     atom:    6    charge:    0.8428    magn:    0.0066    constr:    0.0000
     atom:    7    charge:    0.4950    magn:    0.0000    constr:    0.0000
     atom:    8    charge:    0.4954    magn:    0.0003    constr:    0.0000
     atom:    9    charge:    0.4962    magn:   -0.0014    constr:    0.0000
     atom:   10    charge:    0.4969    magn:   -0.0003    constr:    0.0000
     atom:   11    charge:    0.4968    magn:   -0.0007    constr:    0.0000
     atom:   12    charge:    0.4962    magn:   -0.0011    constr:    0.0000
     atom:   13    charge:    5.8166    magn:    0.7913    constr:    0.0000

     total cpu time spent up to now is       60.4 secs

     The total energy is the sum of the following terms:

     one-electron contribution =    -702.26317203 Ry
     hartree contribution      =     350.27855001 Ry
     xc contribution           =     -30.67530770 Ry
     ewald contribution        =     268.46058250 Ry

     total energy              =    -114.42336706 Ry
     Harris-Foulkes estimate   =    -114.43852327 Ry
     estimated scf accuracy    <       0.06662372 Ry

     total magnetization       =     1.00 Bohr mag/cell
     absolute magnetization    =     1.08 Bohr mag/cell

     iteration #  6     ecut=    90.00 Ry     beta=0.70
     CG style diagonalization
     ethr =  1.80E-04,  avg # of iterations =  3.5

     negative rho (up, down):  1.058E-04 4.753E-05
 
     Magnetic moment per site:
     atom:    1    charge:    0.8446    magn:    0.0023    constr:    0.0000
     atom:    2    charge:    0.8439    magn:    0.0022    constr:    0.0000
     atom:    3    charge:    0.8448    magn:    0.0002    constr:    0.0000
     atom:    4    charge:    0.8441    magn:    0.0000    constr:    0.0000
     atom:    5    charge:    0.8449    magn:    0.0004    constr:    0.0000
     atom:    6    charge:    0.8438    magn:    0.0017    constr:    0.0000
     atom:    7    charge:    0.4945    magn:    0.0001    constr:    0.0000
     atom:    8    charge:    0.4948    magn:    0.0004    constr:    0.0000
     atom:    9    charge:    0.4947    magn:   -0.0011    constr:    0.0000
     atom:   10    charge:    0.4954    magn:   -0.0004    constr:    0.0000
     atom:   11    charge:    0.4951    magn:   -0.0005    constr:    0.0000
     atom:   12    charge:    0.4947    magn:   -0.0008    constr:    0.0000
     atom:   13    charge:    5.7698    magn:    0.9007    constr:    0.0000

     total cpu time spent up to now is       65.1 secs

     The total energy is the sum of the following terms:

     one-electron contribution =    -704.42459386 Ry
     hartree contribution      =     350.27830603 Ry
     xc contribution           =     -30.65312985 Ry
     ewald contribution        =     268.46058250 Ry

     total energy              =    -114.42825496 Ry
     Harris-Foulkes estimate   =    -114.44126770 Ry
     estimated scf accuracy    <       0.09984732 Ry

     total magnetization       =     1.00 Bohr mag/cell
     absolute magnetization    =     1.69 Bohr mag/cell

     iteration #  7     ecut=    90.00 Ry     beta=0.70
     CG style diagonalization
     ethr =  1.80E-04,  avg # of iterations =  3.0

     negative rho (up, down):  3.362E-04 2.818E-04
 
     Magnetic moment per site:
     atom:    1    charge:    0.8430    magn:   -0.0011    constr:    0.0000
     atom:    2    charge:    0.8429    magn:   -0.0009    constr:    0.0000
     atom:    3    charge:    0.8427    magn:   -0.0024    constr:    0.0000
     atom:    4    charge:    0.8413    magn:   -0.0024    constr:    0.0000
     atom:    5    charge:    0.8424    magn:   -0.0026    constr:    0.0000
     atom:    6    charge:    0.8419    magn:   -0.0002    constr:    0.0000
     atom:    7    charge:    0.4983    magn:   -0.0003    constr:    0.0000
     atom:    8    charge:    0.4986    magn:    0.0000    constr:    0.0000
     atom:    9    charge:    0.4986    magn:   -0.0010    constr:    0.0000
     atom:   10    charge:    0.4987    magn:   -0.0004    constr:    0.0000
     atom:   11    charge:    0.4984    magn:   -0.0002    constr:    0.0000
     atom:   12    charge:    0.4986    magn:   -0.0008    constr:    0.0000
     atom:   13    charge:    5.8343    magn:    0.9829    constr:    0.0000

     total cpu time spent up to now is       69.2 secs

     The total energy is the sum of the following terms:

     one-electron contribution =    -702.77220078 Ry
     hartree contribution      =     350.81758350 Ry
     xc contribution           =     -30.74952627 Ry
     ewald contribution        =     268.46058250 Ry

     total energy              =    -114.43559256 Ry
     Harris-Foulkes estimate   =    -114.44087274 Ry
     estimated scf accuracy    <       0.01868020 Ry

     total magnetization       =     1.00 Bohr mag/cell
     absolute magnetization    =     1.19 Bohr mag/cell

     iteration #  8     ecut=    90.00 Ry     beta=0.70
     CG style diagonalization
     ethr =  5.05E-05,  avg # of iterations =  3.3

     negative rho (up, down):  4.157E-05 1.799E-05
 
     Magnetic moment per site:
     atom:    1    charge:    0.8458    magn:   -0.0052    constr:    0.0000
     atom:    2    charge:    0.8451    magn:   -0.0038    constr:    0.0000
     atom:    3    charge:    0.8454    magn:   -0.0070    constr:    0.0000
     atom:    4    charge:    0.8434    magn:   -0.0077    constr:    0.0000
     atom:    5    charge:    0.8442    magn:   -0.0075    constr:    0.0000
     atom:    6    charge:    0.8454    magn:   -0.0054    constr:    0.0000
     atom:    7    charge:    0.4969    magn:   -0.0001    constr:    0.0000
     atom:    8    charge:    0.4969    magn:    0.0000    constr:    0.0000
     atom:    9    charge:    0.4962    magn:   -0.0006    constr:    0.0000
     atom:   10    charge:    0.4961    magn:   -0.0004    constr:    0.0000
     atom:   11    charge:    0.4960    magn:   -0.0002    constr:    0.0000
     atom:   12    charge:    0.4963    magn:   -0.0005    constr:    0.0000
     atom:   13    charge:    5.7979    magn:    1.1064    constr:    0.0000

     total cpu time spent up to now is       73.7 secs

     The total energy is the sum of the following terms:

     one-electron contribution =    -704.43820758 Ry
     hartree contribution      =     350.77719040 Ry
     xc contribution           =     -30.73385725 Ry
     ewald contribution        =     268.46058250 Ry

     total energy              =    -114.43369141 Ry
     Harris-Foulkes estimate   =    -114.44565783 Ry
     estimated scf accuracy    <       0.14571861 Ry

     total magnetization       =     1.00 Bohr mag/cell
     absolute magnetization    =     2.14 Bohr mag/cell

     iteration #  9     ecut=    90.00 Ry     beta=0.70
     CG style diagonalization
     ethr =  5.05E-05,  avg # of iterations =  3.2
 
     Magnetic moment per site:
     atom:    1    charge:    0.8468    magn:   -0.0070    constr:    0.0000
     atom:    2    charge:    0.8467    magn:   -0.0049    constr:    0.0000
     atom:    3    charge:    0.8461    magn:   -0.0089    constr:    0.0000
     atom:    4    charge:    0.8445    magn:   -0.0103    constr:    0.0000
     atom:    5    charge:    0.8450    magn:   -0.0104    constr:    0.0000
     atom:    6    charge:    0.8455    magn:   -0.0074    constr:    0.0000
     atom:    7    charge:    0.4966    magn:    0.0001    constr:    0.0000
     atom:    8    charge:    0.4966    magn:    0.0001    constr:    0.0000
     atom:    9    charge:    0.4953    magn:   -0.0001    constr:    0.0000
     atom:   10    charge:    0.4949    magn:   -0.0001    constr:    0.0000
     atom:   11    charge:    0.4950    magn:    0.0000    constr:    0.0000
     atom:   12    charge:    0.4954    magn:   -0.0001    constr:    0.0000
     atom:   13    charge:    5.7933    magn:    1.1584    constr:    0.0000

     total cpu time spent up to now is       78.2 secs

     The total energy is the sum of the following terms:

     one-electron contribution =    -702.81491820 Ry
     hartree contribution      =     350.80042245 Ry
     xc contribution           =     -30.73826428 Ry
     ewald contribution        =     268.46058250 Ry

     total energy              =    -114.44220151 Ry
     Harris-Foulkes estimate   =    -114.44172899 Ry
     estimated scf accuracy    <       0.00147093 Ry

     total magnetization       =     1.00 Bohr mag/cell
     absolute magnetization    =     1.48 Bohr mag/cell

     iteration # 10     ecut=    90.00 Ry     beta=0.70
     CG style diagonalization
     ethr =  3.98E-06,  avg # of iterations =  4.4

     negative rho (up, down):  1.981E-07 2.144E-07
 
     Magnetic moment per site:
     atom:    1    charge:    0.8465    magn:   -0.0072    constr:    0.0000
     atom:    2    charge:    0.8462    magn:   -0.0051    constr:    0.0000
     atom:    3    charge:    0.8457    magn:   -0.0092    constr:    0.0000
     atom:    4    charge:    0.8439    magn:   -0.0107    constr:    0.0000
     atom:    5    charge:    0.8446    magn:   -0.0108    constr:    0.0000
     atom:    6    charge:    0.8455    magn:   -0.0078    constr:    0.0000
     atom:    7    charge:    0.4969    magn:    0.0001    constr:    0.0000
     atom:    8    charge:    0.4970    magn:    0.0001    constr:    0.0000
     atom:    9    charge:    0.4957    magn:    0.0000    constr:    0.0000
     atom:   10    charge:    0.4953    magn:    0.0000    constr:    0.0000
     atom:   11    charge:    0.4954    magn:    0.0001    constr:    0.0000
     atom:   12    charge:    0.4958    magn:   -0.0001    constr:    0.0000
     atom:   13    charge:    5.7966    magn:    1.1644    constr:    0.0000

     total cpu time spent up to now is       83.8 secs

     The total energy is the sum of the following terms:

     one-electron contribution =    -702.70270854 Ry
     hartree contribution      =     350.82301013 Ry
     xc contribution           =     -30.74288728 Ry
     ewald contribution        =     268.46058250 Ry

     total energy              =    -114.44264657 Ry
     Harris-Foulkes estimate   =    -114.44261853 Ry
     estimated scf accuracy    <       0.00329071 Ry

     total magnetization       =     1.00 Bohr mag/cell
     absolute magnetization    =     1.48 Bohr mag/cell

     iteration # 11     ecut=    90.00 Ry     beta=0.70
     CG style diagonalization
     ethr =  3.98E-06,  avg # of iterations =  3.0

     negative rho (up, down):  2.157E-08 2.128E-08
 
     Magnetic moment per site:
     atom:    1    charge:    0.8458    magn:   -0.0072    constr:    0.0000
     atom:    2    charge:    0.8458    magn:   -0.0050    constr:    0.0000
     atom:    3    charge:    0.8455    magn:   -0.0095    constr:    0.0000
     atom:    4    charge:    0.8436    magn:   -0.0111    constr:    0.0000
     atom:    5    charge:    0.8442    magn:   -0.0114    constr:    0.0000
     atom:    6    charge:    0.8450    magn:   -0.0081    constr:    0.0000
     atom:    7    charge:    0.4972    magn:    0.0003    constr:    0.0000
     atom:    8    charge:    0.4973    magn:    0.0002    constr:    0.0000
     atom:    9    charge:    0.4960    magn:    0.0002    constr:    0.0000
     atom:   10    charge:    0.4956    magn:    0.0002    constr:    0.0000
     atom:   11    charge:    0.4956    magn:    0.0003    constr:    0.0000
     atom:   12    charge:    0.4960    magn:    0.0001    constr:    0.0000
     atom:   13    charge:    5.7964    magn:    1.1643    constr:    0.0000

     total cpu time spent up to now is       88.0 secs

     The total energy is the sum of the following terms:

     one-electron contribution =    -702.75912962 Ry
     hartree contribution      =     350.80283355 Ry
     xc contribution           =     -30.74079945 Ry
     ewald contribution        =     268.46058250 Ry

     total energy              =    -114.44297413 Ry
     Harris-Foulkes estimate   =    -114.44271300 Ry
     estimated scf accuracy    <       0.00161712 Ry

     total magnetization       =     1.00 Bohr mag/cell
     absolute magnetization    =     1.53 Bohr mag/cell

     iteration # 12     ecut=    90.00 Ry     beta=0.70
     CG style diagonalization
     ethr =  3.98E-06,  avg # of iterations =  3.1
 
     Magnetic moment per site:
     atom:    1    charge:    0.8454    magn:   -0.0068    constr:    0.0000
     atom:    2    charge:    0.8454    magn:   -0.0047    constr:    0.0000
     atom:    3    charge:    0.8450    magn:   -0.0095    constr:    0.0000
     atom:    4    charge:    0.8433    magn:   -0.0111    constr:    0.0000
     atom:    5    charge:    0.8441    magn:   -0.0116    constr:    0.0000
     atom:    6    charge:    0.8448    magn:   -0.0082    constr:    0.0000
     atom:    7    charge:    0.4974    magn:    0.0004    constr:    0.0000
     atom:    8    charge:    0.4975    magn:    0.0003    constr:    0.0000
     atom:    9    charge:    0.4963    magn:    0.0003    constr:    0.0000
     atom:   10    charge:    0.4959    magn:    0.0004    constr:    0.0000
     atom:   11    charge:    0.4960    magn:    0.0004    constr:    0.0000
     atom:   12    charge:    0.4963    magn:    0.0003    constr:    0.0000
     atom:   13    charge:    5.7977    magn:    1.1572    constr:    0.0000

     total cpu time spent up to now is       92.3 secs

     The total energy is the sum of the following terms:

     one-electron contribution =    -702.81426634 Ry
     hartree contribution      =     350.78789236 Ry
     xc contribution           =     -30.73965988 Ry
     ewald contribution        =     268.46058250 Ry

     total energy              =    -114.44340817 Ry
     Harris-Foulkes estimate   =    -114.44318533 Ry
     estimated scf accuracy    <       0.00112700 Ry

     total magnetization       =     1.00 Bohr mag/cell
     absolute magnetization    =     1.54 Bohr mag/cell

     iteration # 13     ecut=    90.00 Ry     beta=0.70
     CG style diagonalization
     ethr =  3.05E-06,  avg # of iterations =  3.1

     negative rho (up, down):  7.918E-07 9.869E-07
 
     Magnetic moment per site:
     atom:    1    charge:    0.8449    magn:   -0.0068    constr:    0.0000
     atom:    2    charge:    0.8449    magn:   -0.0048    constr:    0.0000
     atom:    3    charge:    0.8450    magn:   -0.0097    constr:    0.0000
     atom:    4    charge:    0.8434    magn:   -0.0112    constr:    0.0000
     atom:    5    charge:    0.8440    magn:   -0.0117    constr:    0.0000
     atom:    6    charge:    0.8450    magn:   -0.0084    constr:    0.0000
     atom:    7    charge:    0.4975    magn:    0.0004    constr:    0.0000
     atom:    8    charge:    0.4977    magn:    0.0003    constr:    0.0000
     atom:    9    charge:    0.4963    magn:    0.0004    constr:    0.0000
     atom:   10    charge:    0.4959    magn:    0.0004    constr:    0.0000
     atom:   11    charge:    0.4959    magn:    0.0004    constr:    0.0000
     atom:   12    charge:    0.4963    magn:    0.0003    constr:    0.0000
     atom:   13    charge:    5.8010    magn:    1.1596    constr:    0.0000

     total cpu time spent up to now is       96.5 secs

     The total energy is the sum of the following terms:

     one-electron contribution =    -702.91617971 Ry
     hartree contribution      =     350.80452494 Ry
     xc contribution           =     -30.74326422 Ry
     ewald contribution        =     268.46058250 Ry

     total energy              =    -114.44390197 Ry
     Harris-Foulkes estimate   =    -114.44379234 Ry
     estimated scf accuracy    <       0.00041899 Ry

     total magnetization       =     1.00 Bohr mag/cell
     absolute magnetization    =     1.57 Bohr mag/cell

     iteration # 14     ecut=    90.00 Ry     beta=0.70
     CG style diagonalization
     ethr =  1.13E-06,  avg # of iterations =  3.5

     negative rho (up, down):  4.444E-06 2.129E-06
 
     Magnetic moment per site:
     atom:    1    charge:    0.8455    magn:   -0.0063    constr:    0.0000
     atom:    2    charge:    0.8457    magn:   -0.0048    constr:    0.0000
     atom:    3    charge:    0.8456    magn:   -0.0096    constr:    0.0000
     atom:    4    charge:    0.8440    magn:   -0.0108    constr:    0.0000
     atom:    5    charge:    0.8446    magn:   -0.0114    constr:    0.0000
     atom:    6    charge:    0.8453    magn:   -0.0083    constr:    0.0000
     atom:    7    charge:    0.4970    magn:    0.0002    constr:    0.0000
     atom:    8    charge:    0.4971    magn:    0.0002    constr:    0.0000
     atom:    9    charge:    0.4958    magn:    0.0001    constr:    0.0000
     atom:   10    charge:    0.4954    magn:    0.0002    constr:    0.0000
     atom:   11    charge:    0.4955    magn:    0.0002    constr:    0.0000
     atom:   12    charge:    0.4958    magn:    0.0001    constr:    0.0000
     atom:   13    charge:    5.8013    magn:    1.1582    constr:    0.0000

     total cpu time spent up to now is      101.1 secs

     The total energy is the sum of the following terms:

     one-electron contribution =    -703.01842201 Ry
     hartree contribution      =     350.81652794 Ry
     xc contribution           =     -30.73999933 Ry
     ewald contribution        =     268.46058250 Ry

     total energy              =    -114.44418929 Ry
     Harris-Foulkes estimate   =    -114.44397686 Ry
     estimated scf accuracy    <       0.00054330 Ry

     total magnetization       =     1.00 Bohr mag/cell
     absolute magnetization    =     1.63 Bohr mag/cell

     iteration # 15     ecut=    90.00 Ry     beta=0.70
     CG style diagonalization
     ethr =  1.13E-06,  avg # of iterations =  3.2
 
     Magnetic moment per site:
     atom:    1    charge:    0.8455    magn:   -0.0064    constr:    0.0000
     atom:    2    charge:    0.8457    magn:   -0.0045    constr:    0.0000
     atom:    3    charge:    0.8450    magn:   -0.0092    constr:    0.0000
     atom:    4    charge:    0.8433    magn:   -0.0108    constr:    0.0000
     atom:    5    charge:    0.8440    magn:   -0.0115    constr:    0.0000
     atom:    6    charge:    0.8445    magn:   -0.0078    constr:    0.0000
     atom:    7    charge:    0.4972    magn:    0.0004    constr:    0.0000
     atom:    8    charge:    0.4974    magn:    0.0003    constr:    0.0000
     atom:    9    charge:    0.4961    magn:    0.0003    constr:    0.0000
     atom:   10    charge:    0.4957    magn:    0.0004    constr:    0.0000
     atom:   11    charge:    0.4958    magn:    0.0004    constr:    0.0000
     atom:   12    charge:    0.4961    magn:    0.0003    constr:    0.0000
     atom:   13    charge:    5.7998    magn:    1.1485    constr:    0.0000

     total cpu time spent up to now is      105.3 secs

     The total energy is the sum of the following terms:

     one-electron contribution =    -703.02973954 Ry
     hartree contribution      =     350.80083358 Ry
     xc contribution           =     -30.74029271 Ry
     ewald contribution        =     268.46058250 Ry

     total energy              =    -114.44363033 Ry
     Harris-Foulkes estimate   =    -114.44446807 Ry
     estimated scf accuracy    <       0.00102081 Ry

     total magnetization       =     1.00 Bohr mag/cell
     absolute magnetization    =     1.64 Bohr mag/cell

     iteration # 16     ecut=    90.00 Ry     beta=0.70
     CG style diagonalization
     ethr =  1.13E-06,  avg # of iterations =  3.2

     negative rho (up, down):  4.230E-06 1.587E-06
 
     Magnetic moment per site:
     atom:    1    charge:    0.8456    magn:   -0.0059    constr:    0.0000
     atom:    2    charge:    0.8457    magn:   -0.0043    constr:    0.0000
     atom:    3    charge:    0.8451    magn:   -0.0082    constr:    0.0000
     atom:    4    charge:    0.8438    magn:   -0.0099    constr:    0.0000
     atom:    5    charge:    0.8447    magn:   -0.0106    constr:    0.0000
     atom:    6    charge:    0.8447    magn:   -0.0068    constr:    0.0000
     atom:    7    charge:    0.4969    magn:    0.0002    constr:    0.0000
     atom:    8    charge:    0.4970    magn:    0.0002    constr:    0.0000
     atom:    9    charge:    0.4959    magn:    0.0001    constr:    0.0000
     atom:   10    charge:    0.4955    magn:    0.0002    constr:    0.0000
     atom:   11    charge:    0.4956    magn:    0.0002    constr:    0.0000
     atom:   12    charge:    0.4959    magn:    0.0001    constr:    0.0000
     atom:   13    charge:    5.8018    magn:    1.1330    constr:    0.0000

     total cpu time spent up to now is      109.6 secs

     The total energy is the sum of the following terms:

     one-electron contribution =    -702.96862612 Ry
     hartree contribution      =     350.78707874 Ry
     xc contribution           =     -30.73770475 Ry
     ewald contribution        =     268.46058250 Ry

     total energy              =    -114.44347336 Ry
     Harris-Foulkes estimate   =    -114.44395438 Ry
     estimated scf accuracy    <       0.00049869 Ry

     total magnetization       =     1.00 Bohr mag/cell
     absolute magnetization    =     1.60 Bohr mag/cell

     iteration # 17     ecut=    90.00 Ry     beta=0.70
     CG style diagonalization
     ethr =  1.13E-06,  avg # of iterations =  3.1

     negative rho (up, down):  3.728E-06 1.337E-06
 
     Magnetic moment per site:
     atom:    1    charge:    0.8455    magn:   -0.0059    constr:    0.0000
     atom:    2    charge:    0.8455    magn:   -0.0043    constr:    0.0000
     atom:    3    charge:    0.8453    magn:   -0.0092    constr:    0.0000
     atom:    4    charge:    0.8439    magn:   -0.0102    constr:    0.0000
     atom:    5    charge:    0.8447    magn:   -0.0104    constr:    0.0000
     atom:    6    charge:    0.8449    magn:   -0.0079    constr:    0.0000
     atom:    7    charge:    0.4969    magn:    0.0002    constr:    0.0000
     atom:    8    charge:    0.4971    magn:    0.0002    constr:    0.0000
     atom:    9    charge:    0.4958    magn:    0.0001    constr:    0.0000
     atom:   10    charge:    0.4955    magn:    0.0002    constr:    0.0000
     atom:   11    charge:    0.4956    magn:    0.0002    constr:    0.0000
     atom:   12    charge:    0.4959    magn:    0.0001    constr:    0.0000
     atom:   13    charge:    5.7996    magn:    1.1445    constr:    0.0000

     total cpu time spent up to now is      113.9 secs

     The total energy is the sum of the following terms:

     one-electron contribution =    -703.02434786 Ry
     hartree contribution      =     350.81041239 Ry
     xc contribution           =     -30.73650622 Ry
     ewald contribution        =     268.46058250 Ry

     total energy              =    -114.44373275 Ry
     Harris-Foulkes estimate   =    -114.44361059 Ry
     estimated scf accuracy    <       0.00117104 Ry

     total magnetization       =     1.00 Bohr mag/cell
     absolute magnetization    =     1.62 Bohr mag/cell

     iteration # 18     ecut=    90.00 Ry     beta=0.70
     CG style diagonalization
     ethr =  1.13E-06,  avg # of iterations =  3.1

     negative rho (up, down):  2.934E-07 8.320E-08
 
     Magnetic moment per site:
     atom:    1    charge:    0.8451    magn:   -0.0061    constr:    0.0000
     atom:    2    charge:    0.8453    magn:   -0.0043    constr:    0.0000
     atom:    3    charge:    0.8456    magn:   -0.0106    constr:    0.0000
     atom:    4    charge:    0.8435    magn:   -0.0112    constr:    0.0000
     atom:    5    charge:    0.8441    magn:   -0.0112    constr:    0.0000
     atom:    6    charge:    0.8454    magn:   -0.0096    constr:    0.0000
     atom:    7    charge:    0.4972    magn:    0.0003    constr:    0.0000
     atom:    8    charge:    0.4973    magn:    0.0003    constr:    0.0000
     atom:    9    charge:    0.4960    magn:    0.0003    constr:    0.0000
     atom:   10    charge:    0.4956    magn:    0.0003    constr:    0.0000
     atom:   11    charge:    0.4957    magn:    0.0004    constr:    0.0000
     atom:   12    charge:    0.4960    magn:    0.0003    constr:    0.0000
     atom:   13    charge:    5.7989    magn:    1.1620    constr:    0.0000

     total cpu time spent up to now is      118.0 secs

     The total energy is the sum of the following terms:

     one-electron contribution =    -702.91965448 Ry
     hartree contribution      =     350.81870601 Ry
     xc contribution           =     -30.74162309 Ry
     ewald contribution        =     268.46058250 Ry

     total energy              =    -114.44401219 Ry
     Harris-Foulkes estimate   =    -114.44415823 Ry
     estimated scf accuracy    <       0.00062514 Ry

     total magnetization       =     1.00 Bohr mag/cell
     absolute magnetization    =     1.58 Bohr mag/cell

     iteration # 19     ecut=    90.00 Ry     beta=0.70
     CG style diagonalization
     ethr =  1.13E-06,  avg # of iterations =  3.5

     negative rho (up, down):  7.567E-07 2.070E-05
 
     Magnetic moment per site:
     atom:    1    charge:    0.8443    magn:   -0.0060    constr:    0.0000
     atom:    2    charge:    0.8447    magn:   -0.0043    constr:    0.0000
     atom:    3    charge:    0.8457    magn:   -0.0126    constr:    0.0000
     atom:    4    charge:    0.8433    magn:   -0.0123    constr:    0.0000
     atom:    5    charge:    0.8436    magn:   -0.0120    constr:    0.0000
     atom:    6    charge:    0.8456    magn:   -0.0120    constr:    0.0000
     atom:    7    charge:    0.4976    magn:    0.0004    constr:    0.0000
     atom:    8    charge:    0.4978    magn:    0.0003    constr:    0.0000
     atom:    9    charge:    0.4962    magn:    0.0005    constr:    0.0000
     atom:   10    charge:    0.4959    magn:    0.0006    constr:    0.0000
     atom:   11    charge:    0.4960    magn:    0.0006    constr:    0.0000
     atom:   12    charge:    0.4962    magn:    0.0005    constr:    0.0000
     atom:   13    charge:    5.7980    magn:    1.1861    constr:    0.0000

     total cpu time spent up to now is      122.6 secs

     The total energy is the sum of the following terms:

     one-electron contribution =    -702.95062578 Ry
     hartree contribution      =     350.84757133 Ry
     xc contribution           =     -30.75938621 Ry
     ewald contribution        =     268.46058250 Ry

     total energy              =    -114.44274268 Ry
     Harris-Foulkes estimate   =    -114.44520339 Ry
     estimated scf accuracy    <       0.00023206 Ry

     total magnetization       =     1.00 Bohr mag/cell
     absolute magnetization    =     1.59 Bohr mag/cell

     iteration # 20     ecut=    90.00 Ry     beta=0.70
     CG style diagonalization
     ethr =  6.27E-07,  avg # of iterations =  4.3
 
     Magnetic moment per site:
     atom:    1    charge:    0.8452    magn:   -0.0068    constr:    0.0000
     atom:    2    charge:    0.8451    magn:   -0.0050    constr:    0.0000
     atom:    3    charge:    0.8448    magn:   -0.0093    constr:    0.0000
     atom:    4    charge:    0.8432    magn:   -0.0111    constr:    0.0000
     atom:    5    charge:    0.8442    magn:   -0.0121    constr:    0.0000
     atom:    6    charge:    0.8448    magn:   -0.0078    constr:    0.0000
     atom:    7    charge:    0.4974    magn:    0.0004    constr:    0.0000
     atom:    8    charge:    0.4975    magn:    0.0003    constr:    0.0000
     atom:    9    charge:    0.4963    magn:    0.0004    constr:    0.0000
     atom:   10    charge:    0.4958    magn:    0.0004    constr:    0.0000
     atom:   11    charge:    0.4959    magn:    0.0004    constr:    0.0000
     atom:   12    charge:    0.4963    magn:    0.0003    constr:    0.0000
     atom:   13    charge:    5.7980    magn:    1.1575    constr:    0.0000

     total cpu time spent up to now is      127.9 secs

     The total energy is the sum of the following terms:

     one-electron contribution =    -702.97538852 Ry
     hartree contribution      =     350.78425631 Ry
     xc contribution           =     -30.73729447 Ry
     ewald contribution        =     268.46058250 Ry

     total energy              =    -114.43548239 Ry
     Harris-Foulkes estimate   =    -114.44564078 Ry
     estimated scf accuracy    <       0.00102473 Ry

     total magnetization       =     1.00 Bohr mag/cell
     absolute magnetization    =     1.58 Bohr mag/cell

     iteration # 21     ecut=    90.00 Ry     beta=0.70
     CG style diagonalization
     ethr =  6.27E-07,  avg # of iterations =  4.8

     negative rho (up, down):  2.116E-08 2.023E-08
 
     Magnetic moment per site:
     atom:    1    charge:    0.8453    magn:   -0.0071    constr:    0.0000
     atom:    2    charge:    0.8454    magn:   -0.0053    constr:    0.0000
     atom:    3    charge:    0.8448    magn:   -0.0092    constr:    0.0000
     atom:    4    charge:    0.8433    magn:   -0.0113    constr:    0.0000
     atom:    5    charge:    0.8443    magn:   -0.0125    constr:    0.0000
     atom:    6    charge:    0.8446    magn:   -0.0077    constr:    0.0000
     atom:    7    charge:    0.4973    magn:    0.0005    constr:    0.0000
     atom:    8    charge:    0.4975    magn:    0.0003    constr:    0.0000
     atom:    9    charge:    0.4963    magn:    0.0004    constr:    0.0000
     atom:   10    charge:    0.4958    magn:    0.0005    constr:    0.0000
     atom:   11    charge:    0.4959    magn:    0.0005    constr:    0.0000
     atom:   12    charge:    0.4963    magn:    0.0004    constr:    0.0000
     atom:   13    charge:    5.7975    magn:    1.1614    constr:    0.0000

     total cpu time spent up to now is      133.6 secs

     The total energy is the sum of the following terms:

     one-electron contribution =    -702.95791857 Ry
     hartree contribution      =     350.79129895 Ry
     xc contribution           =     -30.73733747 Ry
     ewald contribution        =     268.46058250 Ry

     total energy              =    -114.44387531 Ry
     Harris-Foulkes estimate   =    -114.44390833 Ry
     estimated scf accuracy    <       0.00067502 Ry

     total magnetization       =     1.00 Bohr mag/cell
     absolute magnetization    =     1.59 Bohr mag/cell

     iteration # 22     ecut=    90.00 Ry     beta=0.70
     CG style diagonalization
     ethr =  6.27E-07,  avg # of iterations =  3.0

     negative rho (up, down):  6.191E-07 3.007E-07
 
     Magnetic moment per site:
     atom:    1    charge:    0.8455    magn:   -0.0075    constr:    0.0000
     atom:    2    charge:    0.8456    magn:   -0.0059    constr:    0.0000
     atom:    3    charge:    0.8446    magn:   -0.0089    constr:    0.0000
     atom:    4    charge:    0.8433    magn:   -0.0115    constr:    0.0000
     atom:    5    charge:    0.8445    magn:   -0.0136    constr:    0.0000
     atom:    6    charge:    0.8446    magn:   -0.0072    constr:    0.0000
     atom:    7    charge:    0.4973    magn:    0.0006    constr:    0.0000
     atom:    8    charge:    0.4974    magn:    0.0004    constr:    0.0000
     atom:    9    charge:    0.4963    magn:    0.0005    constr:    0.0000
     atom:   10    charge:    0.4958    magn:    0.0006    constr:    0.0000
     atom:   11    charge:    0.4958    magn:    0.0006    constr:    0.0000
     atom:   12    charge:    0.4963    magn:    0.0004    constr:    0.0000
     atom:   13    charge:    5.7976    magn:    1.1662    constr:    0.0000

     total cpu time spent up to now is      137.6 secs

     The total energy is the sum of the following terms:

     one-electron contribution =    -702.92424895 Ry
     hartree contribution      =     350.79706105 Ry
     xc contribution           =     -30.73723640 Ry
     ewald contribution        =     268.46058250 Ry

     total energy              =    -114.44394769 Ry
     Harris-Foulkes estimate   =    -114.44388539 Ry
     estimated scf accuracy    <       0.00074879 Ry

     total magnetization       =     1.00 Bohr mag/cell
     absolute magnetization    =     1.58 Bohr mag/cell

     iteration # 23     ecut=    90.00 Ry     beta=0.70
     CG style diagonalization
     ethr =  6.27E-07,  avg # of iterations =  3.0

     negative rho (up, down):  9.980E-07 4.349E-07
 
     Magnetic moment per site:
     atom:    1    charge:    0.8456    magn:   -0.0075    constr:    0.0000
     atom:    2    charge:    0.8457    magn:   -0.0061    constr:    0.0000
     atom:    3    charge:    0.8446    magn:   -0.0089    constr:    0.0000
     atom:    4    charge:    0.8434    magn:   -0.0116    constr:    0.0000
     atom:    5    charge:    0.8446    magn:   -0.0140    constr:    0.0000
     atom:    6    charge:    0.8445    magn:   -0.0071    constr:    0.0000
     atom:    7    charge:    0.4973    magn:    0.0006    constr:    0.0000
     atom:    8    charge:    0.4974    magn:    0.0004    constr:    0.0000
     atom:    9    charge:    0.4962    magn:    0.0005    constr:    0.0000
     atom:   10    charge:    0.4957    magn:    0.0006    constr:    0.0000
     atom:   11    charge:    0.4958    magn:    0.0006    constr:    0.0000
     atom:   12    charge:    0.4963    magn:    0.0005    constr:    0.0000
     atom:   13    charge:    5.7974    magn:    1.1689    constr:    0.0000

     total cpu time spent up to now is      141.7 secs

     The total energy is the sum of the following terms:

     one-electron contribution =    -702.92904421 Ry
     hartree contribution      =     350.80236717 Ry
     xc contribution           =     -30.73613679 Ry
     ewald contribution        =     268.46058250 Ry

     total energy              =    -114.44404251 Ry
     Harris-Foulkes estimate   =    -114.44396421 Ry
     estimated scf accuracy    <       0.00087362 Ry

     total magnetization       =     1.00 Bohr mag/cell
     absolute magnetization    =     1.59 Bohr mag/cell

     iteration # 24     ecut=    90.00 Ry     beta=0.70
     CG style diagonalization
     ethr =  6.27E-07,  avg # of iterations =  3.1

     negative rho (up, down):  1.014E-06 5.512E-07
 
     Magnetic moment per site:
     atom:    1    charge:    0.8459    magn:   -0.0078    constr:    0.0000
     atom:    2    charge:    0.8458    magn:   -0.0062    constr:    0.0000
     atom:    3    charge:    0.8443    magn:   -0.0074    constr:    0.0000
     atom:    4    charge:    0.8435    magn:   -0.0111    constr:    0.0000
     atom:    5    charge:    0.8447    magn:   -0.0141    constr:    0.0000
     atom:    6    charge:    0.8443    magn:   -0.0052    constr:    0.0000
     atom:    7    charge:    0.4972    magn:    0.0006    constr:    0.0000
     atom:    8    charge:    0.4973    magn:    0.0004    constr:    0.0000
     atom:    9    charge:    0.4963    magn:    0.0005    constr:    0.0000
     atom:   10    charge:    0.4957    magn:    0.0006    constr:    0.0000
     atom:   11    charge:    0.4957    magn:    0.0006    constr:    0.0000
     atom:   12    charge:    0.4963    magn:    0.0004    constr:    0.0000
     atom:   13    charge:    5.7989    magn:    1.1528    constr:    0.0000

     total cpu time spent up to now is      145.8 secs

     The total energy is the sum of the following terms:

     one-electron contribution =    -702.91753724 Ry
     hartree contribution      =     350.78631443 Ry
     xc contribution           =     -30.74178752 Ry
     ewald contribution        =     268.46058250 Ry

     total energy              =    -114.44094529 Ry
     Harris-Foulkes estimate   =    -114.44406745 Ry
     estimated scf accuracy    <       0.00109859 Ry

     total magnetization       =     1.00 Bohr mag/cell
     absolute magnetization    =     1.59 Bohr mag/cell

     iteration # 25     ecut=    90.00 Ry     beta=0.70
     CG style diagonalization
     ethr =  6.27E-07,  avg # of iterations =  3.8

     negative rho (up, down):  6.475E-07 1.919E-07
 
     Magnetic moment per site:
     atom:    1    charge:    0.8452    magn:   -0.0062    constr:    0.0000
     atom:    2    charge:    0.8450    magn:   -0.0047    constr:    0.0000
     atom:    3    charge:    0.8451    magn:   -0.0099    constr:    0.0000
     atom:    4    charge:    0.8436    magn:   -0.0112    constr:    0.0000
     atom:    5    charge:    0.8441    magn:   -0.0121    constr:    0.0000
     atom:    6    charge:    0.8454    magn:   -0.0088    constr:    0.0000
     atom:    7    charge:    0.4974    magn:    0.0004    constr:    0.0000
     atom:    8    charge:    0.4975    magn:    0.0003    constr:    0.0000
     atom:    9    charge:    0.4962    magn:    0.0005    constr:    0.0000
     atom:   10    charge:    0.4957    magn:    0.0005    constr:    0.0000
     atom:   11    charge:    0.4958    magn:    0.0005    constr:    0.0000
     atom:   12    charge:    0.4962    magn:    0.0004    constr:    0.0000
     atom:   13    charge:    5.7990    magn:    1.1574    constr:    0.0000

     total cpu time spent up to now is      150.6 secs

     The total energy is the sum of the following terms:

     one-electron contribution =    -702.95205985 Ry
     hartree contribution      =     350.82187237 Ry
     xc contribution           =     -30.73884409 Ry
     ewald contribution        =     268.46058250 Ry

     total energy              =    -114.43896992 Ry
     Harris-Foulkes estimate   =    -114.44276472 Ry
     estimated scf accuracy    <       0.00101170 Ry

     total magnetization       =     1.00 Bohr mag/cell
     absolute magnetization    =     1.60 Bohr mag/cell

     iteration # 26     ecut=    90.00 Ry     beta=0.70
     CG style diagonalization
     ethr =  6.27E-07,  avg # of iterations =  4.3

     negative rho (up, down):  1.429E-07 2.646E-02
 
     Magnetic moment per site:
     atom:    1    charge:    0.8425    magn:   -0.0005    constr:    0.0000
     atom:    2    charge:    0.8429    magn:    0.0010    constr:    0.0000
     atom:    3    charge:    0.8477    magn:   -0.0168    constr:    0.0000
     atom:    4    charge:    0.8432    magn:   -0.0104    constr:    0.0000
     atom:    5    charge:    0.8420    magn:   -0.0041    constr:    0.0000
     atom:    6    charge:    0.8481    magn:   -0.0190    constr:    0.0000
     atom:    7    charge:    0.4979    magn:   -0.0002    constr:    0.0000
     atom:    8    charge:    0.4982    magn:   -0.0001    constr:    0.0000
     atom:    9    charge:    0.4961    magn:    0.0003    constr:    0.0000
     atom:   10    charge:    0.4959    magn:    0.0002    constr:    0.0000
     atom:   11    charge:    0.4961    magn:    0.0002    constr:    0.0000
     atom:   12    charge:    0.4960    magn:    0.0003    constr:    0.0000
     atom:   13    charge:    5.8029    magn:    1.1476    constr:    0.0000

     total cpu time spent up to now is      155.9 secs

     The total energy is the sum of the following terms:

     one-electron contribution =    -702.94578919 Ry
     hartree contribution      =     350.94603583 Ry
     xc contribution           =     -30.85622492 Ry
     ewald contribution        =     268.46058250 Ry

     total energy              =    -114.40604194 Ry
     Harris-Foulkes estimate   =    -114.44519907 Ry
     estimated scf accuracy    <       0.00051431 Ry

     total magnetization       =     1.00 Bohr mag/cell
     absolute magnetization    =     1.59 Bohr mag/cell

     iteration # 27     ecut=    90.00 Ry     beta=0.70
     CG style diagonalization
     ethr =  6.27E-07,  avg # of iterations =  6.2

     negative rho (up, down):  1.495E-08 3.125E-09
 
     Magnetic moment per site:
     atom:    1    charge:    0.8446    magn:   -0.0055    constr:    0.0000
     atom:    2    charge:    0.8448    magn:   -0.0043    constr:    0.0000
     atom:    3    charge:    0.8453    magn:   -0.0104    constr:    0.0000
     atom:    4    charge:    0.8436    magn:   -0.0110    constr:    0.0000
     atom:    5    charge:    0.8441    magn:   -0.0115    constr:    0.0000
     atom:    6    charge:    0.8452    magn:   -0.0096    constr:    0.0000
     atom:    7    charge:    0.4975    magn:    0.0004    constr:    0.0000
     atom:    8    charge:    0.4977    magn:    0.0003    constr:    0.0000
     atom:    9    charge:    0.4962    magn:    0.0005    constr:    0.0000
     atom:   10    charge:    0.4958    magn:    0.0005    constr:    0.0000
     atom:   11    charge:    0.4959    magn:    0.0005    constr:    0.0000
     atom:   12    charge:    0.4962    magn:    0.0004    constr:    0.0000
     atom:   13    charge:    5.7977    magn:    1.1559    constr:    0.0000

     total cpu time spent up to now is      163.0 secs

     The total energy is the sum of the following terms:

     one-electron contribution =    -703.29035581 Ry
     hartree contribution      =     350.82151077 Ry
     xc contribution           =     -30.74020666 Ry
     ewald contribution        =     268.46058250 Ry

     total energy              =    -114.42697364 Ry
     Harris-Foulkes estimate   =    -114.43847415 Ry
     estimated scf accuracy    <       0.03852479 Ry

     total magnetization       =     1.00 Bohr mag/cell
     absolute magnetization    =     1.63 Bohr mag/cell

     iteration # 28     ecut=    90.00 Ry     beta=0.70
     CG style diagonalization
     ethr =  6.27E-07,  avg # of iterations =  6.0
 
     Magnetic moment per site:
     atom:    1    charge:    0.8452    magn:   -0.0060    constr:    0.0000
     atom:    2    charge:    0.8453    magn:   -0.0048    constr:    0.0000
     atom:    3    charge:    0.8448    magn:   -0.0091    constr:    0.0000
     atom:    4    charge:    0.8435    magn:   -0.0106    constr:    0.0000
     atom:    5    charge:    0.8444    magn:   -0.0120    constr:    0.0000
     atom:    6    charge:    0.8447    magn:   -0.0078    constr:    0.0000
     atom:    7    charge:    0.4974    magn:    0.0004    constr:    0.0000
     atom:    8    charge:    0.4975    magn:    0.0003    constr:    0.0000
     atom:    9    charge:    0.4962    magn:    0.0004    constr:    0.0000
     atom:   10    charge:    0.4958    magn:    0.0005    constr:    0.0000
     atom:   11    charge:    0.4958    magn:    0.0005    constr:    0.0000
     atom:   12    charge:    0.4962    magn:    0.0004    constr:    0.0000
     atom:   13    charge:    5.7979    magn:    1.1467    constr:    0.0000

     total cpu time spent up to now is      169.9 secs

     The total energy is the sum of the following terms:

     one-electron contribution =    -702.93970373 Ry
     hartree contribution      =     350.80648974 Ry
     xc contribution           =     -30.73356360 Ry
     ewald contribution        =     268.46058250 Ry

     total energy              =    -114.44400938 Ry
     Harris-Foulkes estimate   =    -114.44590205 Ry
     estimated scf accuracy    <       0.00065027 Ry

     total magnetization       =     1.00 Bohr mag/cell
     absolute magnetization    =     1.56 Bohr mag/cell

     iteration # 29     ecut=    90.00 Ry     beta=0.70
     CG style diagonalization
     ethr =  6.27E-07,  avg # of iterations =  3.6
 
     Magnetic moment per site:
     atom:    1    charge:    0.8449    magn:   -0.0053    constr:    0.0000
     atom:    2    charge:    0.8451    magn:   -0.0043    constr:    0.0000
     atom:    3    charge:    0.8451    magn:   -0.0097    constr:    0.0000
     atom:    4    charge:    0.8434    magn:   -0.0105    constr:    0.0000
     atom:    5    charge:    0.8442    magn:   -0.0112    constr:    0.0000
     atom:    6    charge:    0.8450    magn:   -0.0088    constr:    0.0000
     atom:    7    charge:    0.4974    magn:    0.0003    constr:    0.0000
     atom:    8    charge:    0.4976    magn:    0.0002    constr:    0.0000
     atom:    9    charge:    0.4962    magn:    0.0004    constr:    0.0000
     atom:   10    charge:    0.4958    magn:    0.0004    constr:    0.0000
     atom:   11    charge:    0.4959    magn:    0.0004    constr:    0.0000
     atom:   12    charge:    0.4962    magn:    0.0004    constr:    0.0000
     atom:   13    charge:    5.7986    magn:    1.1438    constr:    0.0000

     total cpu time spent up to now is      174.5 secs

     The total energy is the sum of the following terms:

     one-electron contribution =    -702.91189707 Ry
     hartree contribution      =     350.81791081 Ry
     xc contribution           =     -30.73689581 Ry
     ewald contribution        =     268.46058250 Ry

     total energy              =    -114.44506113 Ry
     Harris-Foulkes estimate   =    -114.44502194 Ry
     estimated scf accuracy    <       0.00129822 Ry

     total magnetization       =     1.00 Bohr mag/cell
     absolute magnetization    =     1.56 Bohr mag/cell

     iteration # 30     ecut=    90.00 Ry     beta=0.70
     CG style diagonalization
     ethr =  6.27E-07,  avg # of iterations =  3.4
 
     Magnetic moment per site:
     atom:    1    charge:    0.8450    magn:   -0.0055    constr:    0.0000
     atom:    2    charge:    0.8451    magn:   -0.0045    constr:    0.0000
     atom:    3    charge:    0.8450    magn:   -0.0093    constr:    0.0000
     atom:    4    charge:    0.8434    magn:   -0.0105    constr:    0.0000
     atom:    5    charge:    0.8443    magn:   -0.0115    constr:    0.0000
     atom:    6    charge:    0.8449    magn:   -0.0083    constr:    0.0000
     atom:    7    charge:    0.4974    magn:    0.0003    constr:    0.0000
     atom:    8    charge:    0.4976    magn:    0.0003    constr:    0.0000
     atom:    9    charge:    0.4962    magn:    0.0004    constr:    0.0000
     atom:   10    charge:    0.4958    magn:    0.0004    constr:    0.0000
     atom:   11    charge:    0.4959    magn:    0.0005    constr:    0.0000
     atom:   12    charge:    0.4962    magn:    0.0004    constr:    0.0000
     atom:   13    charge:    5.7985    magn:    1.1435    constr:    0.0000

     total cpu time spent up to now is      178.9 secs

     The total energy is the sum of the following terms:

     one-electron contribution =    -702.92696859 Ry
     hartree contribution      =     350.80981544 Ry
     xc contribution           =     -30.73487555 Ry
     ewald contribution        =     268.46058250 Ry

     total energy              =    -114.44529637 Ry
     Harris-Foulkes estimate   =    -114.44576600 Ry
     estimated scf accuracy    <       0.00080387 Ry

     total magnetization       =     1.00 Bohr mag/cell
     absolute magnetization    =     1.55 Bohr mag/cell

     iteration # 31     ecut=    90.00 Ry     beta=0.70
     CG style diagonalization
     ethr =  6.27E-07,  avg # of iterations =  3.1
 
     Magnetic moment per site:
     atom:    1    charge:    0.8448    magn:   -0.0051    constr:    0.0000
     atom:    2    charge:    0.8450    magn:   -0.0041    constr:    0.0000
     atom:    3    charge:    0.8451    magn:   -0.0097    constr:    0.0000
     atom:    4    charge:    0.8435    magn:   -0.0104    constr:    0.0000
     atom:    5    charge:    0.8441    magn:   -0.0109    constr:    0.0000
     atom:    6    charge:    0.8451    magn:   -0.0089    constr:    0.0000
     atom:    7    charge:    0.4975    magn:    0.0003    constr:    0.0000
     atom:    8    charge:    0.4976    magn:    0.0002    constr:    0.0000
     atom:    9    charge:    0.4962    magn:    0.0004    constr:    0.0000
     atom:   10    charge:    0.4958    magn:    0.0004    constr:    0.0000
     atom:   11    charge:    0.4959    magn:    0.0004    constr:    0.0000
     atom:   12    charge:    0.4962    magn:    0.0004    constr:    0.0000
     atom:   13    charge:    5.7992    magn:    1.1409    constr:    0.0000

     total cpu time spent up to now is      183.1 secs

     The total energy is the sum of the following terms:

     one-electron contribution =    -702.93102343 Ry
     hartree contribution      =     350.81836902 Ry
     xc contribution           =     -30.73761651 Ry
     ewald contribution        =     268.46058250 Ry

     total energy              =    -114.44559972 Ry
     Harris-Foulkes estimate   =    -114.44543932 Ry
     estimated scf accuracy    <       0.00094609 Ry

     total magnetization       =     1.00 Bohr mag/cell
     absolute magnetization    =     1.56 Bohr mag/cell

     iteration # 32     ecut=    90.00 Ry     beta=0.70
     CG style diagonalization
     ethr =  6.27E-07,  avg # of iterations =  3.2
 
     Magnetic moment per site:
     atom:    1    charge:    0.8446    magn:   -0.0047    constr:    0.0000
     atom:    2    charge:    0.8449    magn:   -0.0037    constr:    0.0000
     atom:    3    charge:    0.8454    magn:   -0.0103    constr:    0.0000
     atom:    4    charge:    0.8435    magn:   -0.0103    constr:    0.0000
     atom:    5    charge:    0.8440    magn:   -0.0104    constr:    0.0000
     atom:    6    charge:    0.8454    magn:   -0.0097    constr:    0.0000
     atom:    7    charge:    0.4975    magn:    0.0002    constr:    0.0000
     atom:    8    charge:    0.4977    magn:    0.0002    constr:    0.0000
     atom:    9    charge:    0.4962    magn:    0.0004    constr:    0.0000
     atom:   10    charge:    0.4958    magn:    0.0004    constr:    0.0000
     atom:   11    charge:    0.4959    magn:    0.0004    constr:    0.0000
     atom:   12    charge:    0.4962    magn:    0.0004    constr:    0.0000
     atom:   13    charge:    5.7998    magn:    1.1407    constr:    0.0000

     total cpu time spent up to now is      187.2 secs

     The total energy is the sum of the following terms:

     one-electron contribution =    -702.94364088 Ry
     hartree contribution      =     350.82772210 Ry
     xc contribution           =     -30.74196898 Ry
     ewald contribution        =     268.46058250 Ry

     total energy              =    -114.44591913 Ry
     Harris-Foulkes estimate   =    -114.44583489 Ry
     estimated scf accuracy    <       0.00061454 Ry

     total magnetization       =     1.00 Bohr mag/cell
     absolute magnetization    =     1.56 Bohr mag/cell

     iteration # 33     ecut=    90.00 Ry     beta=0.70
     CG style diagonalization
     ethr =  6.27E-07,  avg # of iterations =  3.2
 
     Magnetic moment per site:
     atom:    1    charge:    0.8447    magn:   -0.0048    constr:    0.0000
     atom:    2    charge:    0.8449    magn:   -0.0038    constr:    0.0000
     atom:    3    charge:    0.8453    magn:   -0.0101    constr:    0.0000
     atom:    4    charge:    0.8435    magn:   -0.0103    constr:    0.0000
     atom:    5    charge:    0.8440    magn:   -0.0105    constr:    0.0000
     atom:    6    charge:    0.8453    magn:   -0.0094    constr:    0.0000
     atom:    7    charge:    0.4975    magn:    0.0003    constr:    0.0000
     atom:    8    charge:    0.4977    magn:    0.0002    constr:    0.0000
     atom:    9    charge:    0.4962    magn:    0.0004    constr:    0.0000
     atom:   10    charge:    0.4958    magn:    0.0004    constr:    0.0000
     atom:   11    charge:    0.4959    magn:    0.0004    constr:    0.0000
     atom:   12    charge:    0.4962    magn:    0.0004    constr:    0.0000
     atom:   13    charge:    5.7996    magn:    1.1399    constr:    0.0000

     total cpu time spent up to now is      191.4 secs

     The total energy is the sum of the following terms:

     one-electron contribution =    -702.95390955 Ry
     hartree contribution      =     350.82448094 Ry
     xc contribution           =     -30.74043990 Ry
     ewald contribution        =     268.46058250 Ry

     total energy              =    -114.44598517 Ry
     Harris-Foulkes estimate   =    -114.44608618 Ry
     estimated scf accuracy    <       0.00037737 Ry

     total magnetization       =     1.00 Bohr mag/cell
     absolute magnetization    =     1.56 Bohr mag/cell

     iteration # 34     ecut=    90.00 Ry     beta=0.70
     CG style diagonalization
     ethr =  6.27E-07,  avg # of iterations =  3.1
 
     Magnetic moment per site:
     atom:    1    charge:    0.8448    magn:   -0.0050    constr:    0.0000
     atom:    2    charge:    0.8450    magn:   -0.0040    constr:    0.0000
     atom:    3    charge:    0.8453    magn:   -0.0099    constr:    0.0000
     atom:    4    charge:    0.8435    magn:   -0.0104    constr:    0.0000
     atom:    5    charge:    0.8440    magn:   -0.0108    constr:    0.0000
     atom:    6    charge:    0.8452    magn:   -0.0091    constr:    0.0000
     atom:    7    charge:    0.4975    magn:    0.0003    constr:    0.0000
     atom:    8    charge:    0.4976    magn:    0.0002    constr:    0.0000
     atom:    9    charge:    0.4962    magn:    0.0004    constr:    0.0000
     atom:   10    charge:    0.4958    magn:    0.0004    constr:    0.0000
     atom:   11    charge:    0.4959    magn:    0.0004    constr:    0.0000
     atom:   12    charge:    0.4962    magn:    0.0004    constr:    0.0000
     atom:   13    charge:    5.7993    magn:    1.1413    constr:    0.0000

     total cpu time spent up to now is      195.5 secs

     The total energy is the sum of the following terms:

     one-electron contribution =    -702.94967212 Ry
     hartree contribution      =     350.82157323 Ry
     xc contribution           =     -30.73899537 Ry
     ewald contribution        =     268.46058250 Ry

     total energy              =    -114.44585264 Ry
     Harris-Foulkes estimate   =    -114.44600654 Ry
     estimated scf accuracy    <       0.00044063 Ry

     total magnetization       =     1.00 Bohr mag/cell
     absolute magnetization    =     1.56 Bohr mag/cell

     iteration # 35     ecut=    90.00 Ry     beta=0.70
     CG style diagonalization
     ethr =  6.27E-07,  avg # of iterations =  3.1
 
     Magnetic moment per site:
     atom:    1    charge:    0.8448    magn:   -0.0050    constr:    0.0000
     atom:    2    charge:    0.8450    magn:   -0.0039    constr:    0.0000
     atom:    3    charge:    0.8452    magn:   -0.0099    constr:    0.0000
     atom:    4    charge:    0.8435    magn:   -0.0104    constr:    0.0000
     atom:    5    charge:    0.8441    magn:   -0.0107    constr:    0.0000
     atom:    6    charge:    0.8452    magn:   -0.0092    constr:    0.0000
     atom:    7    charge:    0.4975    magn:    0.0003    constr:    0.0000
     atom:    8    charge:    0.4976    magn:    0.0002    constr:    0.0000
     atom:    9    charge:    0.4962    magn:    0.0004    constr:    0.0000
     atom:   10    charge:    0.4958    magn:    0.0004    constr:    0.0000
     atom:   11    charge:    0.4959    magn:    0.0004    constr:    0.0000
     atom:   12    charge:    0.4962    magn:    0.0004    constr:    0.0000
     atom:   13    charge:    5.7993    magn:    1.1414    constr:    0.0000

     total cpu time spent up to now is      199.7 secs

     The total energy is the sum of the following terms:

     one-electron contribution =    -702.94431629 Ry
     hartree contribution      =     350.82062493 Ry
     xc contribution           =     -30.73888927 Ry
     ewald contribution        =     268.46058250 Ry

     total energy              =    -114.44586575 Ry
     Harris-Foulkes estimate   =    -114.44588779 Ry
     estimated scf accuracy    <       0.00053706 Ry

     total magnetization       =     1.00 Bohr mag/cell
     absolute magnetization    =     1.56 Bohr mag/cell

     iteration # 36     ecut=    90.00 Ry     beta=0.70
     CG style diagonalization
     ethr =  6.27E-07,  avg # of iterations =  3.0

     negative rho (up, down):  2.264E-08 1.071E-08
 
     Magnetic moment per site:
     atom:    1    charge:    0.8439    magn:   -0.0070    constr:    0.0000
     atom:    2    charge:    0.8445    magn:   -0.0059    constr:    0.0000
     atom:    3    charge:    0.8464    magn:   -0.0092    constr:    0.0000
     atom:    4    charge:    0.8436    magn:   -0.0112    constr:    0.0000
     atom:    5    charge:    0.8432    magn:   -0.0139    constr:    0.0000
     atom:    6    charge:    0.8465    magn:   -0.0073    constr:    0.0000
     atom:    7    charge:    0.4977    magn:    0.0005    constr:    0.0000
     atom:    8    charge:    0.4976    magn:    0.0005    constr:    0.0000
     atom:    9    charge:    0.4960    magn:    0.0003    constr:    0.0000
     atom:   10    charge:    0.4956    magn:    0.0005    constr:    0.0000
     atom:   11    charge:    0.4958    magn:    0.0007    constr:    0.0000
     atom:   12    charge:    0.4960    magn:    0.0002    constr:    0.0000
     atom:   13    charge:    5.7993    magn:    1.1648    constr:    0.0000

     total cpu time spent up to now is      203.7 secs

     The total energy is the sum of the following terms:

     one-electron contribution =    -702.94326913 Ry
     hartree contribution      =     350.81767372 Ry
     xc contribution           =     -30.73820150 Ry
     ewald contribution        =     268.46058250 Ry

     total energy              =    -114.44512852 Ry
     Harris-Foulkes estimate   =    -114.44586704 Ry
     estimated scf accuracy    <       0.00054996 Ry

     total magnetization       =     1.00 Bohr mag/cell
     absolute magnetization    =     1.56 Bohr mag/cell

     iteration # 37     ecut=    90.00 Ry     beta=0.70
     CG style diagonalization
     ethr =  6.27E-07,  avg # of iterations =  3.3
 
     Magnetic moment per site:
     atom:    1    charge:    0.8447    magn:   -0.0069    constr:    0.0000
     atom:    2    charge:    0.8451    magn:   -0.0059    constr:    0.0000
     atom:    3    charge:    0.8455    magn:   -0.0090    constr:    0.0000
     atom:    4    charge:    0.8433    magn:   -0.0111    constr:    0.0000
     atom:    5    charge:    0.8439    magn:   -0.0141    constr:    0.0000
     atom:    6    charge:    0.8457    magn:   -0.0071    constr:    0.0000
     atom:    7    charge:    0.4974    magn:    0.0006    constr:    0.0000
     atom:    8    charge:    0.4975    magn:    0.0005    constr:    0.0000
     atom:    9    charge:    0.4962    magn:    0.0004    constr:    0.0000
     atom:   10    charge:    0.4957    magn:    0.0006    constr:    0.0000
     atom:   11    charge:    0.4957    magn:    0.0008    constr:    0.0000
     atom:   12    charge:    0.4962    magn:    0.0003    constr:    0.0000
     atom:   13    charge:    5.7988    magn:    1.1610    constr:    0.0000

     total cpu time spent up to now is      208.0 secs

     The total energy is the sum of the following terms:

     one-electron contribution =    -702.98197039 Ry
     hartree contribution      =     350.82477114 Ry
     xc contribution           =     -30.73620744 Ry
     ewald contribution        =     268.46058250 Ry

     total energy              =    -114.44540852 Ry
     Harris-Foulkes estimate   =    -114.44545025 Ry
     estimated scf accuracy    <       0.00055479 Ry

     total magnetization       =     1.00 Bohr mag/cell
     absolute magnetization    =     1.60 Bohr mag/cell

     iteration # 38     ecut=    90.00 Ry     beta=0.70
     CG style diagonalization
     ethr =  6.27E-07,  avg # of iterations =  3.1

     negative rho (up, down):  7.714E-08 2.292E-08
 
     Magnetic moment per site:
     atom:    1    charge:    0.8440    magn:   -0.0077    constr:    0.0000
     atom:    2    charge:    0.8446    magn:   -0.0066    constr:    0.0000
     atom:    3    charge:    0.8462    magn:   -0.0091    constr:    0.0000
     atom:    4    charge:    0.8439    magn:   -0.0117    constr:    0.0000
     atom:    5    charge:    0.8435    magn:   -0.0155    constr:    0.0000
     atom:    6    charge:    0.8464    magn:   -0.0068    constr:    0.0000
     atom:    7    charge:    0.4976    magn:    0.0007    constr:    0.0000
     atom:    8    charge:    0.4975    magn:    0.0006    constr:    0.0000
     atom:    9    charge:    0.4960    magn:    0.0003    constr:    0.0000
     atom:   10    charge:    0.4956    magn:    0.0007    constr:    0.0000
     atom:   11    charge:    0.4957    magn:    0.0009    constr:    0.0000
     atom:   12    charge:    0.4961    magn:    0.0002    constr:    0.0000
     atom:   13    charge:    5.7979    magn:    1.1759    constr:    0.0000

     total cpu time spent up to now is      212.1 secs

     The total energy is the sum of the following terms:

     one-electron contribution =    -702.94565089 Ry
     hartree contribution      =     350.83529862 Ry
     xc contribution           =     -30.73950866 Ry
     ewald contribution        =     268.46058250 Ry

     total energy              =    -114.44554807 Ry
     Harris-Foulkes estimate   =    -114.44543496 Ry
     estimated scf accuracy    <       0.00079309 Ry

     total magnetization       =     1.00 Bohr mag/cell
     absolute magnetization    =     1.59 Bohr mag/cell

     iteration # 39     ecut=    90.00 Ry     beta=0.70
     CG style diagonalization
     ethr =  6.27E-07,  avg # of iterations =  3.1

     negative rho (up, down):  7.156E-08 2.064E-08
 
     Magnetic moment per site:
     atom:    1    charge:    0.8440    magn:   -0.0078    constr:    0.0000
     atom:    2    charge:    0.8446    magn:   -0.0068    constr:    0.0000
     atom:    3    charge:    0.8462    magn:   -0.0089    constr:    0.0000
     atom:    4    charge:    0.8438    magn:   -0.0116    constr:    0.0000
     atom:    5    charge:    0.8436    magn:   -0.0158    constr:    0.0000
     atom:    6    charge:    0.8463    magn:   -0.0065    constr:    0.0000
[...]
     Harris-Foulkes estimate   =    -114.44676205 Ry
     estimated scf accuracy    <          4.0E-09 Ry

     total magnetization       =     1.00 Bohr mag/cell
     absolute magnetization    =     1.58 Bohr mag/cell

     iteration # 59     ecut=    90.00 Ry     beta=0.70
     CG style diagonalization
     ethr =  1.08E-11,  avg # of iterations =  3.8
 
     Magnetic moment per site:
     atom:    1    charge:    0.8441    magn:   -0.0041    constr:    0.0000
     atom:    2    charge:    0.8447    magn:   -0.0041    constr:    0.0000
     atom:    3    charge:    0.8455    magn:   -0.0106    constr:    0.0000
     atom:    4    charge:    0.8433    magn:   -0.0099    constr:    0.0000
     atom:    5    charge:    0.8438    magn:   -0.0099    constr:    0.0000
     atom:    6    charge:    0.8455    magn:   -0.0106    constr:    0.0000
     atom:    7    charge:    0.4977    magn:    0.0002    constr:    0.0000
     atom:    8    charge:    0.4978    magn:    0.0002    constr:    0.0000
     atom:    9    charge:    0.4962    magn:    0.0004    constr:    0.0000
     atom:   10    charge:    0.4958    magn:    0.0004    constr:    0.0000
     atom:   11    charge:    0.4959    magn:    0.0004    constr:    0.0000
     atom:   12    charge:    0.4962    magn:    0.0004    constr:    0.0000
     atom:   13    charge:    5.8050    magn:    1.1371    constr:    0.0000

     total cpu time spent up to now is      310.7 secs

     The total energy is the sum of the following terms:

     one-electron contribution =    -703.03246586 Ry
     hartree contribution      =     350.86823030 Ry
     xc contribution           =     -30.74318021 Ry
     ewald contribution        =     268.46058250 Ry

     total energy              =    -114.44676206 Ry
     Harris-Foulkes estimate   =    -114.44676206 Ry
     estimated scf accuracy    <          1.2E-09 Ry

     total magnetization       =     1.00 Bohr mag/cell
     absolute magnetization    =     1.58 Bohr mag/cell

     iteration # 60     ecut=    90.00 Ry     beta=0.70
     CG style diagonalization
     ethr =  3.17E-12,  avg # of iterations =  4.0
 
     Magnetic moment per site:
     atom:    1    charge:    0.8441    magn:   -0.0041    constr:    0.0000
     atom:    2    charge:    0.8447    magn:   -0.0041    constr:    0.0000
     atom:    3    charge:    0.8455    magn:   -0.0105    constr:    0.0000
     atom:    4    charge:    0.8433    magn:   -0.0099    constr:    0.0000
     atom:    5    charge:    0.8438    magn:   -0.0099    constr:    0.0000
     atom:    6    charge:    0.8455    magn:   -0.0105    constr:    0.0000
     atom:    7    charge:    0.4977    magn:    0.0002    constr:    0.0000
     atom:    8    charge:    0.4978    magn:    0.0002    constr:    0.0000
     atom:    9    charge:    0.4962    magn:    0.0004    constr:    0.0000
     atom:   10    charge:    0.4958    magn:    0.0004    constr:    0.0000
     atom:   11    charge:    0.4959    magn:    0.0004    constr:    0.0000
     atom:   12    charge:    0.4962    magn:    0.0004    constr:    0.0000
     atom:   13    charge:    5.8050    magn:    1.1371    constr:    0.0000

     total cpu time spent up to now is      315.7 secs

     The total energy is the sum of the following terms:

     one-electron contribution =    -703.03240406 Ry
     hartree contribution      =     350.86826820 Ry
     xc contribution           =     -30.74318163 Ry
     ewald contribution        =     268.46058250 Ry

     total energy              =    -114.44676206 Ry
     Harris-Foulkes estimate   =    -114.44676206 Ry
     estimated scf accuracy    <          5.3E-10 Ry

     total magnetization       =     1.00 Bohr mag/cell
     absolute magnetization    =     1.58 Bohr mag/cell

     iteration # 61     ecut=    90.00 Ry     beta=0.70
     CG style diagonalization
     ethr =  1.43E-12,  avg # of iterations =  4.2
 
     Magnetic moment per site:
     atom:    1    charge:    0.8441    magn:   -0.0041    constr:    0.0000
     atom:    2    charge:    0.8447    magn:   -0.0041    constr:    0.0000
     atom:    3    charge:    0.8455    magn:   -0.0105    constr:    0.0000
     atom:    4    charge:    0.8433    magn:   -0.0099    constr:    0.0000
     atom:    5    charge:    0.8438    magn:   -0.0099    constr:    0.0000
     atom:    6    charge:    0.8455    magn:   -0.0105    constr:    0.0000
     atom:    7    charge:    0.4977    magn:    0.0002    constr:    0.0000
     atom:    8    charge:    0.4978    magn:    0.0002    constr:    0.0000
     atom:    9    charge:    0.4962    magn:    0.0004    constr:    0.0000
     atom:   10    charge:    0.4958    magn:    0.0004    constr:    0.0000
     atom:   11    charge:    0.4959    magn:    0.0004    constr:    0.0000
     atom:   12    charge:    0.4962    magn:    0.0004    constr:    0.0000
     atom:   13    charge:    5.8050    magn:    1.1371    constr:    0.0000

     total cpu time spent up to now is      320.9 secs

     The total energy is the sum of the following terms:

     one-electron contribution =    -703.03237007 Ry
     hartree contribution      =     350.86827462 Ry
     xc contribution           =     -30.74317971 Ry
     ewald contribution        =     268.46058250 Ry

     total energy              =    -114.44676206 Ry
     Harris-Foulkes estimate   =    -114.44676206 Ry
     estimated scf accuracy    <          4.2E-10 Ry

     total magnetization       =     1.00 Bohr mag/cell
     absolute magnetization    =     1.58 Bohr mag/cell

     iteration # 62     ecut=    90.00 Ry     beta=0.70
     CG style diagonalization
     ethr =  1.12E-12,  avg # of iterations =  4.2
 
     Magnetic moment per site:
     atom:    1    charge:    0.8441    magn:   -0.0041    constr:    0.0000
     atom:    2    charge:    0.8447    magn:   -0.0041    constr:    0.0000
     atom:    3    charge:    0.8455    magn:   -0.0105    constr:    0.0000
     atom:    4    charge:    0.8433    magn:   -0.0099    constr:    0.0000
     atom:    5    charge:    0.8438    magn:   -0.0099    constr:    0.0000
     atom:    6    charge:    0.8455    magn:   -0.0105    constr:    0.0000
     atom:    7    charge:    0.4977    magn:    0.0002    constr:    0.0000
     atom:    8    charge:    0.4978    magn:    0.0002    constr:    0.0000
     atom:    9    charge:    0.4962    magn:    0.0004    constr:    0.0000
     atom:   10    charge:    0.4958    magn:    0.0004    constr:    0.0000
     atom:   11    charge:    0.4959    magn:    0.0004    constr:    0.0000
     atom:   12    charge:    0.4962    magn:    0.0004    constr:    0.0000
     atom:   13    charge:    5.8050    magn:    1.1371    constr:    0.0000

     total cpu time spent up to now is      326.0 secs

     The total energy is the sum of the following terms:

     one-electron contribution =    -703.03253284 Ry
     hartree contribution      =     350.86831591 Ry
     xc contribution           =     -30.74318146 Ry
     ewald contribution        =     268.46058250 Ry

     total energy              =    -114.44676206 Ry
     Harris-Foulkes estimate   =    -114.44676206 Ry
     estimated scf accuracy    <          3.7E-10 Ry

     total magnetization       =     1.00 Bohr mag/cell
     absolute magnetization    =     1.58 Bohr mag/cell

     iteration # 63     ecut=    90.00 Ry     beta=0.70
     CG style diagonalization
     ethr =  9.99E-13,  avg # of iterations =  3.9
 
     Magnetic moment per site:
     atom:    1    charge:    0.8441    magn:   -0.0041    constr:    0.0000
     atom:    2    charge:    0.8447    magn:   -0.0041    constr:    0.0000
     atom:    3    charge:    0.8455    magn:   -0.0105    constr:    0.0000
     atom:    4    charge:    0.8433    magn:   -0.0099    constr:    0.0000
     atom:    5    charge:    0.8438    magn:   -0.0099    constr:    0.0000
     atom:    6    charge:    0.8455    magn:   -0.0105    constr:    0.0000
     atom:    7    charge:    0.4977    magn:    0.0002    constr:    0.0000
     atom:    8    charge:    0.4978    magn:    0.0002    constr:    0.0000
     atom:    9    charge:    0.4962    magn:    0.0004    constr:    0.0000
     atom:   10    charge:    0.4958    magn:    0.0004    constr:    0.0000
     atom:   11    charge:    0.4959    magn:    0.0004    constr:    0.0000
     atom:   12    charge:    0.4962    magn:    0.0004    constr:    0.0000
     atom:   13    charge:    5.8050    magn:    1.1371    constr:    0.0000

     total cpu time spent up to now is      330.9 secs

     The total energy is the sum of the following terms:

     one-electron contribution =    -703.03246839 Ry
     hartree contribution      =     350.86832222 Ry
     xc contribution           =     -30.74318172 Ry
     ewald contribution        =     268.46058250 Ry

     total energy              =    -114.44676207 Ry
     Harris-Foulkes estimate   =    -114.44676207 Ry
     estimated scf accuracy    <          2.2E-11 Ry

     total magnetization       =     1.00 Bohr mag/cell
     absolute magnetization    =     1.58 Bohr mag/cell

     iteration # 64     ecut=    90.00 Ry     beta=0.70
     CG style diagonalization
     ethr =  1.00E-13,  avg # of iterations =  4.6
 
     Magnetic moment per site:
     atom:    1    charge:    0.8441    magn:   -0.0041    constr:    0.0000
     atom:    2    charge:    0.8447    magn:   -0.0041    constr:    0.0000
     atom:    3    charge:    0.8455    magn:   -0.0105    constr:    0.0000
     atom:    4    charge:    0.8433    magn:   -0.0099    constr:    0.0000
     atom:    5    charge:    0.8438    magn:   -0.0099    constr:    0.0000
     atom:    6    charge:    0.8455    magn:   -0.0105    constr:    0.0000
     atom:    7    charge:    0.4977    magn:    0.0002    constr:    0.0000
     atom:    8    charge:    0.4978    magn:    0.0002    constr:    0.0000
     atom:    9    charge:    0.4962    magn:    0.0004    constr:    0.0000
     atom:   10    charge:    0.4958    magn:    0.0004    constr:    0.0000
     atom:   11    charge:    0.4959    magn:    0.0004    constr:    0.0000
     atom:   12    charge:    0.4962    magn:    0.0004    constr:    0.0000
     atom:   13    charge:    5.8050    magn:    1.1371    constr:    0.0000

     total cpu time spent up to now is      336.5 secs

     The total energy is the sum of the following terms:

     one-electron contribution =    -703.03247753 Ry
     hartree contribution      =     350.86832191 Ry
     xc contribution           =     -30.74318137 Ry
     ewald contribution        =     268.46058250 Ry

     total energy              =    -114.44676207 Ry
     Harris-Foulkes estimate   =    -114.44676207 Ry
     estimated scf accuracy    <          5.7E-12 Ry

     total magnetization       =     1.00 Bohr mag/cell
     absolute magnetization    =     1.58 Bohr mag/cell

     iteration # 65     ecut=    90.00 Ry     beta=0.70
     CG style diagonalization
     ethr =  1.00E-13,  avg # of iterations =  3.8
 
     Magnetic moment per site:
     atom:    1    charge:    0.8441    magn:   -0.0041    constr:    0.0000
     atom:    2    charge:    0.8447    magn:   -0.0041    constr:    0.0000
     atom:    3    charge:    0.8455    magn:   -0.0105    constr:    0.0000
     atom:    4    charge:    0.8433    magn:   -0.0099    constr:    0.0000
     atom:    5    charge:    0.8438    magn:   -0.0099    constr:    0.0000
     atom:    6    charge:    0.8455    magn:   -0.0105    constr:    0.0000
     atom:    7    charge:    0.4977    magn:    0.0002    constr:    0.0000
     atom:    8    charge:    0.4978    magn:    0.0002    constr:    0.0000
     atom:    9    charge:    0.4962    magn:    0.0004    constr:    0.0000
     atom:   10    charge:    0.4958    magn:    0.0004    constr:    0.0000
     atom:   11    charge:    0.4959    magn:    0.0004    constr:    0.0000
     atom:   12    charge:    0.4962    magn:    0.0004    constr:    0.0000
     atom:   13    charge:    5.8050    magn:    1.1371    constr:    0.0000

     total cpu time spent up to now is      341.3 secs

     The total energy is the sum of the following terms:

     one-electron contribution =    -703.03248016 Ry
     hartree contribution      =     350.86832252 Ry
     xc contribution           =     -30.74318145 Ry
     ewald contribution        =     268.46058250 Ry

     total energy              =    -114.44676207 Ry
     Harris-Foulkes estimate   =    -114.44676207 Ry
     estimated scf accuracy    <          4.3E-12 Ry

     total magnetization       =     1.00 Bohr mag/cell
     absolute magnetization    =     1.58 Bohr mag/cell

     iteration # 66     ecut=    90.00 Ry     beta=0.70
     CG style diagonalization
     ethr =  1.00E-13,  avg # of iterations =  3.4
 
     Magnetic moment per site:
     atom:    1    charge:    0.8441    magn:   -0.0041    constr:    0.0000
     atom:    2    charge:    0.8447    magn:   -0.0041    constr:    0.0000
     atom:    3    charge:    0.8455    magn:   -0.0105    constr:    0.0000
     atom:    4    charge:    0.8433    magn:   -0.0099    constr:    0.0000
     atom:    5    charge:    0.8438    magn:   -0.0099    constr:    0.0000
     atom:    6    charge:    0.8455    magn:   -0.0105    constr:    0.0000
     atom:    7    charge:    0.4977    magn:    0.0002    constr:    0.0000
     atom:    8    charge:    0.4978    magn:    0.0002    constr:    0.0000
     atom:    9    charge:    0.4962    magn:    0.0004    constr:    0.0000
     atom:   10    charge:    0.4958    magn:    0.0004    constr:    0.0000
     atom:   11    charge:    0.4959    magn:    0.0004    constr:    0.0000
     atom:   12    charge:    0.4962    magn:    0.0004    constr:    0.0000
     atom:   13    charge:    5.8050    magn:    1.1371    constr:    0.0000

     total cpu time spent up to now is      345.7 secs

     End of self-consistent calculation

 ------ SPIN UP ------------


          k = 0.0000 0.0000 0.0000 (389220 PWs)   bands (ev):

   -25.3116 -22.5728 -22.5256 -19.5538 -18.9970 -18.9900 -17.1622 -15.4931
   -15.0425 -14.5075 -14.4716 -13.2168 -12.4917 -12.4907 -10.5399 -10.4830
    -8.0407  -6.7230  -6.7061  -5.3987  -5.3598  -4.6380  -3.9580  -3.9529
    -3.3029  -3.2933  -3.0433  -2.3289  -2.2351  -2.0652  -2.0489  -1.7759
    -1.7169  -0.7601  -0.7199  -0.6443  -0.6359  -0.3587  -0.3140  -0.1857

     occupation numbers 
     1.0000   1.0000   1.0000   1.0000   1.0000   1.0000   1.0000   1.0000
     1.0000   1.0000   1.0000   1.0000   1.0000   1.0000   1.0000   1.0000
     1.0000   1.0000   1.0000   0.0000   0.0000   0.0000   0.0000   0.0000
     0.0000   0.0000   0.0000   0.0000   0.0000   0.0000   0.0000   0.0000
     0.0000   0.0000   0.0000   0.0000   0.0000   0.0000   0.0000   0.0000

 ------ SPIN DOWN ----------


          k = 0.0000 0.0000 0.0000 (389220 PWs)   bands (ev):

   -25.3534 -22.6167 -22.5817 -19.0389 -19.0378 -17.9905 -17.1778 -15.5295
   -15.0618 -14.5180 -14.4856 -13.3242 -12.5074 -12.5047 -10.6543 -10.6321
    -6.1144  -6.0911  -5.4673  -5.4650  -5.3152  -4.6555  -3.9811  -3.9667
    -3.3289  -3.3176  -3.0738  -2.3317  -2.2620  -2.1046  -2.0860  -1.8627
    -1.8064  -0.7936  -0.7574  -0.6650  -0.6582  -0.4059  -0.3263  -0.2023

     occupation numbers 
     1.0000   1.0000   1.0000   1.0000   1.0000   1.0000   1.0000   1.0000
     1.0000   1.0000   1.0000   1.0000   1.0000   1.0000   1.0000   1.0000
     1.0000   1.0000   0.0000   0.0000   0.0000   0.0000   0.0000   0.0000
     0.0000   0.0000   0.0000   0.0000   0.0000   0.0000   0.0000   0.0000
     0.0000   0.0000   0.0000   0.0000   0.0000   0.0000   0.0000   0.0000

     highest occupied, lowest unoccupied level (ev):    -6.0911   -5.4673

     The total energy is the sum of the following terms:

     one-electron contribution =    -703.03248546 Ry
     hartree contribution      =     350.86832250 Ry
     xc contribution           =     -30.74318160 Ry
     ewald contribution        =     268.46058250 Ry

!    total energy              =    -114.44676207 Ry
     Harris-Foulkes estimate   =    -114.44676207 Ry
     estimated scf accuracy    <          8.4E-13 Ry

     The total energy is the sum of the following terms:

     one-electron contribution =    -703.03248546 Ry
     hartree contribution      =     350.86832250 Ry
     xc contribution           =     -30.74318160 Ry
     ewald contribution        =     268.46058250 Ry

     total magnetization       =     1.00 Bohr mag/cell
     absolute magnetization    =     1.58 Bohr mag/cell

     convergence has been achieved in  66 iterations
 
     Using Hirshfeld
        Amplitude [Ry a.u.] : -3.8911E-01
        Acceptor Fragment start :          13
        Acceptor Fragment end   :          13
        Donor Fragment start :           1
        Donor Fragment end   :          12
 
 
     Using Hirshfeld
        Amplitude [Ry a.u.] : -3.8911E-01
        Acceptor Fragment start :          13
        Acceptor Fragment end   :          13
        Donor Fragment start :           1
        Donor Fragment end   :          12
 
     E field correction              :  0.9338503144250883E+01 Ry    
 
     Donor charge                    :     -0.3486545288075824 e     
     Acceptor charge                 :      0.6512540336825996 e     
     Difference of charges           :     -0.9999085624901802 e     

     Writing output data file right.save
 
     init_run     :     23.22s CPU     23.22s WALL (       1 calls)
     electrons    :    340.67s CPU    340.67s WALL (       1 calls)

     Called by init_run:
     wfcinit      :      3.51s CPU      3.51s WALL (       1 calls)
     potinit      :      1.42s CPU      1.42s WALL (       1 calls)

     Called by electrons:
     c_bands      :    224.26s CPU    224.26s WALL (      66 calls)
     sum_band     :     19.15s CPU     19.15s WALL (      66 calls)
     v_of_rho     :     43.33s CPU     43.33s WALL (      67 calls)
     v_h          :      0.67s CPU      0.67s WALL (      67 calls)
     v_xc         :     42.67s CPU     42.67s WALL (      67 calls)
     mix_rho      :      2.34s CPU      2.34s WALL (      66 calls)

     Called by c_bands:
     init_us_2    :      0.82s CPU      0.82s WALL (     266 calls)
     rcgdiagg     :    176.32s CPU    176.32s WALL (     132 calls)
     wfcrot       :     47.59s CPU     47.59s WALL (     132 calls)

     Called by sum_band:

     Called by *cgdiagg:
     h_psi        :    189.63s CPU    189.63s WALL (   15130 calls)
     rdiaghg      :      9.42s CPU      9.42s WALL (     132 calls)
     rdiaghg:chol :      0.73s CPU      0.73s WALL (     132 calls)
     rdiaghg:inve :      0.13s CPU      0.13s WALL (     132 calls)
     rdiaghg:para :      0.71s CPU      0.71s WALL (     264 calls)

     Called by h_psi:
     h_psi:vloc   :    165.65s CPU    165.65s WALL (   15130 calls)
     h_psi:vnl    :     23.71s CPU     23.71s WALL (   15130 calls)
     add_vuspsi   :     15.76s CPU     15.77s WALL (   15130 calls)

     General routines
     calbec       :     11.12s CPU     11.15s WALL (   30128 calls)
     fft          :     15.88s CPU     15.88s WALL (    2029 calls)
     fftw         :    158.94s CPU    158.96s WALL (   38252 calls)
 
     Parallel routines
     fft_scatter  :     69.35s CPU     69.35s WALL (   40281 calls)
 
     PWSCF        :  6m51.43s CPU     6m51.43s WALL

 
   This run was terminated on:  22:20: 5  22Aug2015            

=------------------------------------------------------------------------------=
   JOB DONE.
=------------------------------------------------------------------------------=
2015-08-22 22:20:22.947 (INFO ) [0xfffb0b9c410] CET-20040-31371-128:1295659:ibm.runjob.client.Job: exited with status 0
2015-08-22 22:20:22.947 (INFO ) [0xfffb0b9c410] tatu.runjob.client: task exited with status 0
2015-08-22 22:20:22.947 (INFO ) [0xfffa6f834e0] 21696:tatu.runjob.monitor: monitor terminating
2015-08-22 22:20:22.951 (INFO ) [0xfffb0b9c410] tatu.runjob.client: monitor completed
