2015-08-22 19:07:10.786 (INFO ) [0xfff8fd3c410] ibm.runjob.AbstractOptions: using properties file /bgsys/local/etc/bg.properties
2015-08-22 19:07:10.794 (INFO ) [0xfff8fd3c410] ibm.runjob.AbstractOptions: max open file descriptors: 65536
2015-08-22 19:07:10.794 (INFO ) [0xfff8fd3c410] ibm.runjob.AbstractOptions: core file limit: 18446744073709551615
2015-08-22 19:07:10.795 (INFO ) [0xfff8fd3c410] 20135:tatu.runjob.client: scheduler job id is 567057
2015-08-22 19:07:10.800 (INFO ) [0xfffb15234e0] 20135:tatu.runjob.monitor: monitor started
2015-08-22 19:07:14.784 (INFO ) [0xfffb15234e0] 20135:tatu.runjob.monitor: task record 1236741 created
2015-08-22 19:07:14.785 (INFO ) [0xfff8fd3c410] CET-62000-73331-128:20135:ibm.runjob.client.options.Parser: set local socket to runjob_mux from properties file
2015-08-22 19:07:17.735 (INFO ) [0xfff8fd3c410] CET-62000-73331-128:1295515:ibm.runjob.client.Job: job 1295515 started

     Program PWSCF v.5.1.1 starts on 22Aug2015 at 19: 7:17 

     This program is part of the open-source Quantum ESPRESSO suite
     for quantum simulation of materials; please cite
         "P. Giannozzi et al., J. Phys.:Condens. Matter 21 395502 (2009);
          URL http://www.quantum-espresso.org", 
     in publications or presentations arising from this work. More details at
     http://www.quantum-espresso.org/quote

     Parallel version (MPI & OpenMP), running on    1024 processor cores
     Number of MPI processes:              1024
     Threads/MPI process:                     1
     R & G space division:  proc/nbgrp/npool/nimage =    1024
     Waiting for input...
     Reading input from standard input

     Current dimensions of program PWSCF are:
     Max number of different atomic species (ntypx) = 10
     Max number of k-points (npk) =  40000
     Max angular momentum in pseudopotentials (lmaxx) =  3
               file C.pbe-mt_fhi.UPF: wavefunction(s)  4f renormalized
               file H.pbe-mt_fhi.UPF: wavefunction(s)  2p 4f renormalized
               file Cl.pbe-mt_fhi.UPF: wavefunction(s)  4f renormalized

     gamma-point specific algorithms are used
     Message from routine setup:
     the system is metallic, specify occupations

     Subspace diagonalization in iterative solution of the eigenvalue problem:
     scalapack distributed-memory algorithm (size of sub-group: 22* 22 procs)

 
     Parallelization info
     --------------------
     sticks:   dense  smooth     PW     G-vecs:    dense   smooth      PW
     Min          31      31      7                 4340     4340     508
     Max          34      34     10                 4396     4396     564
     Sum       32865   32865   8229              4479533  4479533  560339
     Tot       16433   16433   4115
 
     Generating pointlists ...
     new r_m :   0.0263 (alat units)  0.8450 (a.u.) for type    1
     new r_m :   0.0263 (alat units)  0.8450 (a.u.) for type    2
     new r_m :   0.0747 (alat units)  2.4011 (a.u.) for type    3
2015-08-22 19:07:23.883 (INFO ) [0xfffb15234e0] 20135:tatu.runjob.monitor: tracklib completed


     bravais-lattice index     =            1
     lattice parameter (alat)  =      32.1253  a.u.
     unit-cell volume          =   33154.5678 (a.u.)^3
     number of atoms/cell      =           13
     number of atomic types    =            3
     number of electrons       =        37.00 (up:  19.00, down:  18.00)
     number of Kohn-Sham states=           40
     kinetic-energy cutoff     =     100.0000  Ry
     charge density cutoff     =     400.0000  Ry
     convergence threshold     =      1.0E-08
     mixing beta               =       0.7000
     number of iterations used =            8  plain     mixing
     Exchange-correlation      = PBE ( 1  4  3  4 0 0)
     Assuming isolated system, Martyna-Tuckerman method


     celldm(1)=  32.125344  celldm(2)=   0.000000  celldm(3)=   0.000000
     celldm(4)=   0.000000  celldm(5)=   0.000000  celldm(6)=   0.000000

     crystal axes: (cart. coord. in units of alat)
               a(1) = (   1.000000   0.000000   0.000000 )  
               a(2) = (   0.000000   1.000000   0.000000 )  
               a(3) = (   0.000000   0.000000   1.000000 )  

     reciprocal axes: (cart. coord. in units 2 pi/alat)
               b(1) = (  1.000000  0.000000  0.000000 )  
               b(2) = (  0.000000  1.000000  0.000000 )  
               b(3) = (  0.000000  0.000000  1.000000 )  


     PseudoPot. # 1 for  C read from file:
     ./C.pbe-mt_fhi.UPF
     MD5 check sum: 058ca341f9d6d5327d9962fd88a91b65
     Pseudo is Norm-conserving, Zval =  4.0
     Generated using FHI98PP, converted with fhi2upf.x v.5.0.2
     Using radial grid of  461 points,  3 beta functions with: 
                l(1) =   0
                l(2) =   1
                l(3) =   3

     PseudoPot. # 2 for  H read from file:
     ./H.pbe-mt_fhi.UPF
     MD5 check sum: a19bd5488733b3d98581df861506e80d
     Pseudo is Norm-conserving, Zval =  1.0
     Generated using FHI98PP, converted with fhi2upf.x v.5.0.2
     Using radial grid of  387 points,  3 beta functions with: 
                l(1) =   0
                l(2) =   1
                l(3) =   3

     PseudoPot. # 3 for Cl read from file:
     ./Cl.pbe-mt_fhi.UPF
     MD5 check sum: 2690b95bbfe21454a1a3af22474751ef
     Pseudo is Norm-conserving, Zval =  7.0
     Generated using FHI98PP, converted with fhi2upf.x v.5.0.2
     Using radial grid of  503 points,  3 beta functions with: 
                l(1) =   0
                l(2) =   1
                l(3) =   3

     atomic species   valence    mass     pseudopotential
        C              4.00    12.01070      C( 1.00)
        H              1.00     1.00794      H( 1.00)
        Cl             7.00     1.00000     Cl( 1.00)

     Starting magnetic structure 
     atomic species   magnetization
        C            0.000
        H            0.000
        Cl           0.000

     No symmetry found


                                    s                        frac. trans.

      isym =  1     identity                                     

 cryst.   s( 1) = (     1          0          0      )
                  (     0          1          0      )
                  (     0          0          1      )

 cart.    s( 1) = (  1.0000000  0.0000000  0.0000000 )
                  (  0.0000000  1.0000000  0.0000000 )
                  (  0.0000000  0.0000000  1.0000000 )


     point group C_1 (1)    
     there are  1 classes
     the character table:

       E    
A      1.00

     the symmetry operations in each class:
     E        1

   Cartesian axes

     site n.     atom                  positions (alat units)
         1           C   tau(   1) = (   0.0000000   0.0821765   0.0000000  )
         2           C   tau(   2) = (   0.0711647   0.0410882   0.0000000  )
         3           C   tau(   3) = (   0.0711647  -0.0410882   0.0000000  )
         4           C   tau(   4) = (   0.0000000  -0.0821765   0.0000000  )
         5           C   tau(   5) = (  -0.0711647  -0.0410882   0.0000000  )
         6           C   tau(   6) = (  -0.0711647   0.0410882   0.0000000  )
         7           H   tau(   7) = (   0.0000000   0.1459412   0.0000000  )
         8           H   tau(   8) = (   0.1263882   0.0729706   0.0000000  )
         9           H   tau(   9) = (   0.1263882  -0.0729706   0.0000000  )
        10           H   tau(  10) = (   0.0000000  -0.1459412   0.0000000  )
        11           H   tau(  11) = (  -0.1263882  -0.0729706   0.0000000  )
        12           H   tau(  12) = (  -0.1263882   0.0729706   0.0000000  )
        13           Cl  tau(  13) = (   0.0355824   0.0616324   0.1764706  )

   Crystallographic axes

     site n.     atom                  positions (cryst. coord.)
         1           C   tau(   1) = (  0.0000000  0.0821765  0.0000000  )
         2           C   tau(   2) = (  0.0711647  0.0410882  0.0000000  )
         3           C   tau(   3) = (  0.0711647 -0.0410882  0.0000000  )
         4           C   tau(   4) = (  0.0000000 -0.0821765  0.0000000  )
         5           C   tau(   5) = ( -0.0711647 -0.0410882  0.0000000  )
         6           C   tau(   6) = ( -0.0711647  0.0410882  0.0000000  )
         7           H   tau(   7) = (  0.0000000  0.1459412  0.0000000  )
         8           H   tau(   8) = (  0.1263882  0.0729706  0.0000000  )
         9           H   tau(   9) = (  0.1263882 -0.0729706  0.0000000  )
        10           H   tau(  10) = (  0.0000000 -0.1459412  0.0000000  )
        11           H   tau(  11) = ( -0.1263882 -0.0729706  0.0000000  )
        12           H   tau(  12) = ( -0.1263882  0.0729706  0.0000000  )
        13           Cl  tau(  13) = (  0.0355824  0.0616324  0.1764706  )

     number of k points=     2
                       cart. coord. in units 2pi/alat
        k(    1) = (   0.0000000   0.0000000   0.0000000), wk =   1.0000000
        k(    2) = (   0.0000000   0.0000000   0.0000000), wk =   1.0000000

                       cryst. coord.
        k(    1) = (   0.0000000   0.0000000   0.0000000), wk =   1.0000000
        k(    2) = (   0.0000000   0.0000000   0.0000000), wk =   1.0000000

     Dense  grid:  2239767 G-vectors     FFT dimensions: ( 220, 220, 220)

     Largest allocated arrays     est. size (Mb)     dimensions
        Kohn-Sham Wavefunctions         0.16 Mb     (     262,   40)
        NL pseudopotentials             0.57 Mb     (     262,  143)
        Each V/rho on FFT grid          1.48 Mb     (   48400,   2)
        Each G-vector array             0.02 Mb     (    2194)
        G-vector shells                 0.01 Mb     (    1020)
     Largest temporary arrays     est. size (Mb)     dimensions
        Each subspace H/S matrix        0.00 Mb     (       1,    1)
        Each <psi_i|beta_j> matrix      0.04 Mb     (     143,   40)
        Arrays for rho mixing           5.91 Mb     (   48400,    8)
 
     Using Hirshfeld
        Amplitude [Ry a.u.] : -3.7979E-01
        Acceptor Fragment start :          13
        Acceptor Fragment end   :          13
        Donor Fragment start :           1
        Donor Fragment end   :          12
 

     Initial potential from superposition of free atoms
     Check: negative starting charge=(component1):   -0.001198
     Check: negative starting charge=(component2):   -0.001198

     starting charge   36.99968, renormalised to   37.00000

     negative rho (up, down):  1.198E-03 1.198E-03
     Starting wfc are  208 randomized atomic wfcs

     total cpu time spent up to now is       21.2 secs

     per-process dynamical memory:    54.0 Mb

     Self-consistent Calculation

     iteration #  1     ecut=   100.00 Ry     beta=0.70
     CG style diagonalization
     ethr =  1.00E-02,  avg # of iterations =  3.8

     negative rho (up, down):  2.351E-04 2.472E-04
 
     Magnetic moment per site:
     atom:    1    charge:    1.0271    magn:    0.0317    constr:    0.0000
     atom:    2    charge:    1.0246    magn:    0.0315    constr:    0.0000
     atom:    3    charge:    1.0233    magn:    0.0307    constr:    0.0000
     atom:    4    charge:    1.0250    magn:    0.0300    constr:    0.0000
     atom:    5    charge:    1.0232    magn:    0.0301    constr:    0.0000
     atom:    6    charge:    1.0233    magn:    0.0307    constr:    0.0000
     atom:    7    charge:    0.4452    magn:    0.0012    constr:    0.0000
     atom:    8    charge:    0.4448    magn:    0.0013    constr:    0.0000
     atom:    9    charge:    0.4446    magn:    0.0013    constr:    0.0000
     atom:   10    charge:    0.4451    magn:    0.0012    constr:    0.0000
     atom:   11    charge:    0.4442    magn:    0.0011    constr:    0.0000
     atom:   12    charge:    0.4445    magn:    0.0012    constr:    0.0000
     atom:   13    charge:    3.1679    magn:    0.0006    constr:    0.0000

     total cpu time spent up to now is       26.7 secs

     The total energy is the sum of the following terms:

     one-electron contribution =    -729.16928274 Ry
     hartree contribution      =     372.57188595 Ry
     xc contribution           =     -31.51265876 Ry
     ewald contribution        =     268.46058250 Ry

     total energy              =    -102.92961462 Ry
     Harris-Foulkes estimate   =    -117.06352053 Ry
     estimated scf accuracy    <      16.75363877 Ry

     total magnetization       =     1.00 Bohr mag/cell
     absolute magnetization    =     1.00 Bohr mag/cell

     iteration #  2     ecut=   100.00 Ry     beta=0.70
     CG style diagonalization
     ethr =  1.00E-02,  avg # of iterations =  9.8

     negative rho (up, down):  1.229E-04 1.384E-04
 
     Magnetic moment per site:
     atom:    1    charge:    0.9001    magn:    0.0303    constr:    0.0000
     atom:    2    charge:    0.8984    magn:    0.0304    constr:    0.0000
     atom:    3    charge:    0.8925    magn:    0.0271    constr:    0.0000
     atom:    4    charge:    0.8925    magn:    0.0261    constr:    0.0000
     atom:    5    charge:    0.8909    magn:    0.0261    constr:    0.0000
     atom:    6    charge:    0.8921    magn:    0.0270    constr:    0.0000
     atom:    7    charge:    0.4423    magn:    0.0052    constr:    0.0000
     atom:    8    charge:    0.4427    magn:    0.0061    constr:    0.0000
     atom:    9    charge:    0.4332    magn:    0.0029    constr:    0.0000
     atom:   10    charge:    0.4320    magn:    0.0020    constr:    0.0000
     atom:   11    charge:    0.4315    magn:    0.0017    constr:    0.0000
     atom:   12    charge:    0.4327    magn:    0.0028    constr:    0.0000
     atom:   13    charge:    5.4095    magn:    0.0126    constr:    0.0000

     total cpu time spent up to now is       36.0 secs

     The total energy is the sum of the following terms:

     one-electron contribution =    -565.66706834 Ry
     hartree contribution      =     347.57373801 Ry
     xc contribution           =     -30.27192702 Ry
     ewald contribution        =     268.46058250 Ry

     total energy              =     -85.27681458 Ry
     Harris-Foulkes estimate   =    -140.79300777 Ry
     estimated scf accuracy    <     206.55854458 Ry

     total magnetization       =     1.00 Bohr mag/cell
     absolute magnetization    =     1.19 Bohr mag/cell

     iteration #  3     ecut=   100.00 Ry     beta=0.70
     CG style diagonalization
     ethr =  1.00E-02,  avg # of iterations =  9.3

     negative rho (up, down):  4.349E-05 5.621E-05
 
     Magnetic moment per site:
     atom:    1    charge:    0.8838    magn:    0.0239    constr:    0.0000
     atom:    2    charge:    0.8817    magn:    0.0226    constr:    0.0000
     atom:    3    charge:    0.8764    magn:    0.0226    constr:    0.0000
     atom:    4    charge:    0.8736    magn:    0.0192    constr:    0.0000
     atom:    5    charge:    0.8703    magn:    0.0185    constr:    0.0000
     atom:    6    charge:    0.8769    magn:    0.0199    constr:    0.0000
     atom:    7    charge:    0.4638    magn:    0.0025    constr:    0.0000
     atom:    8    charge:    0.4645    magn:    0.0036    constr:    0.0000
     atom:    9    charge:    0.4614    magn:    0.0005    constr:    0.0000
     atom:   10    charge:    0.4622    magn:    0.0007    constr:    0.0000
     atom:   11    charge:    0.4612    magn:    0.0017    constr:    0.0000
     atom:   12    charge:    0.4620    magn:    0.0007    constr:    0.0000
     atom:   13    charge:    5.6300    magn:    0.3093    constr:    0.0000

     total cpu time spent up to now is       45.0 secs

     The total energy is the sum of the following terms:

     one-electron contribution =    -702.69024450 Ry
     hartree contribution      =     349.79421724 Ry
     xc contribution           =     -30.53551599 Ry
     ewald contribution        =     268.46058250 Ry

     total energy              =    -114.14956625 Ry
     Harris-Foulkes estimate   =    -114.28255779 Ry
     estimated scf accuracy    <       0.55704932 Ry

     total magnetization       =     1.00 Bohr mag/cell
     absolute magnetization    =     1.15 Bohr mag/cell

     iteration #  4     ecut=   100.00 Ry     beta=0.70
     CG style diagonalization
     c_bands:  1 eigenvalues not converged
     ethr =  1.51E-03,  avg # of iterations =  4.4

     negative rho (up, down):  9.265E-05 6.669E-05
 
     Magnetic moment per site:
     atom:    1    charge:    0.8552    magn:    0.0111    constr:    0.0000
     atom:    2    charge:    0.8531    magn:    0.0108    constr:    0.0000
     atom:    3    charge:    0.8520    magn:    0.0111    constr:    0.0000
     atom:    4    charge:    0.8519    magn:    0.0097    constr:    0.0000
     atom:    5    charge:    0.8520    magn:    0.0104    constr:    0.0000
     atom:    6    charge:    0.8506    magn:    0.0110    constr:    0.0000
     atom:    7    charge:    0.4873    magn:    0.0017    constr:    0.0000
     atom:    8    charge:    0.4861    magn:    0.0017    constr:    0.0000
     atom:    9    charge:    0.4847    magn:   -0.0001    constr:    0.0000
     atom:   10    charge:    0.4861    magn:   -0.0001    constr:    0.0000
     atom:   11    charge:    0.4859    magn:    0.0004    constr:    0.0000
     atom:   12    charge:    0.4845    magn:   -0.0006    constr:    0.0000
     atom:   13    charge:    5.7636    magn:    0.6078    constr:    0.0000

     total cpu time spent up to now is       50.0 secs

     The total energy is the sum of the following terms:

     one-electron contribution =    -701.20418480 Ry
     hartree contribution      =     350.02206322 Ry
     xc contribution           =     -30.61488166 Ry
     ewald contribution        =     268.46058250 Ry

     total energy              =    -114.19969962 Ry
     Harris-Foulkes estimate   =    -114.23743028 Ry
     estimated scf accuracy    <       0.21308402 Ry

     total magnetization       =     1.00 Bohr mag/cell
     absolute magnetization    =     1.08 Bohr mag/cell

     iteration #  5     ecut=   100.00 Ry     beta=0.70
     CG style diagonalization
     ethr =  5.76E-04,  avg # of iterations =  3.1

     negative rho (up, down):  3.678E-04 2.312E-04
 
     Magnetic moment per site:
     atom:    1    charge:    0.8411    magn:    0.0034    constr:    0.0000
     atom:    2    charge:    0.8394    magn:    0.0035    constr:    0.0000
     atom:    3    charge:    0.8396    magn:    0.0040    constr:    0.0000
     atom:    4    charge:    0.8454    magn:    0.0028    constr:    0.0000
     atom:    5    charge:    0.8435    magn:    0.0035    constr:    0.0000
     atom:    6    charge:    0.8402    magn:    0.0050    constr:    0.0000
     atom:    7    charge:    0.4991    magn:    0.0007    constr:    0.0000
     atom:    8    charge:    0.4977    magn:    0.0003    constr:    0.0000
     atom:    9    charge:    0.4970    magn:   -0.0006    constr:    0.0000
     atom:   10    charge:    0.4982    magn:   -0.0006    constr:    0.0000
     atom:   11    charge:    0.4978    magn:   -0.0006    constr:    0.0000
     atom:   12    charge:    0.4968    magn:   -0.0013    constr:    0.0000
     atom:   13    charge:    5.8561    magn:    0.8201    constr:    0.0000

     total cpu time spent up to now is       53.9 secs

     The total energy is the sum of the following terms:

     one-electron contribution =    -702.09672491 Ry
     hartree contribution      =     350.54703342 Ry
     xc contribution           =     -30.72225734 Ry
     ewald contribution        =     268.46058250 Ry

     total energy              =    -114.20326261 Ry
     Harris-Foulkes estimate   =    -114.21342574 Ry
     estimated scf accuracy    <       0.04859096 Ry

     total magnetization       =     1.00 Bohr mag/cell
     absolute magnetization    =     1.09 Bohr mag/cell

     iteration #  6     ecut=   100.00 Ry     beta=0.70
     CG style diagonalization
     ethr =  1.31E-04,  avg # of iterations =  3.7

     negative rho (up, down):  2.190E-04 1.202E-04
 
     Magnetic moment per site:
     atom:    1    charge:    0.8425    magn:    0.0029    constr:    0.0000
     atom:    2    charge:    0.8408    magn:    0.0029    constr:    0.0000
     atom:    3    charge:    0.8409    magn:    0.0028    constr:    0.0000
     atom:    4    charge:    0.8457    magn:    0.0019    constr:    0.0000
     atom:    5    charge:    0.8437    magn:    0.0025    constr:    0.0000
     atom:    6    charge:    0.8415    magn:    0.0036    constr:    0.0000
     atom:    7    charge:    0.4981    magn:    0.0007    constr:    0.0000
     atom:    8    charge:    0.4968    magn:    0.0004    constr:    0.0000
     atom:    9    charge:    0.4960    magn:   -0.0007    constr:    0.0000
     atom:   10    charge:    0.4972    magn:   -0.0006    constr:    0.0000
     atom:   11    charge:    0.4968    magn:   -0.0005    constr:    0.0000
     atom:   12    charge:    0.4959    magn:   -0.0013    constr:    0.0000
     atom:   13    charge:    5.8315    magn:    0.8467    constr:    0.0000

     total cpu time spent up to now is       58.3 secs

     The total energy is the sum of the following terms:

     one-electron contribution =    -704.69339413 Ry
     hartree contribution      =     350.45073722 Ry
     xc contribution           =     -30.70020632 Ry
     ewald contribution        =     268.46058250 Ry

     total energy              =    -114.21151570 Ry
     Harris-Foulkes estimate   =    -114.22199367 Ry
     estimated scf accuracy    <       0.24862714 Ry

     total magnetization       =     1.00 Bohr mag/cell
     absolute magnetization    =     2.04 Bohr mag/cell

     iteration #  7     ecut=   100.00 Ry     beta=0.70
     CG style diagonalization
     ethr =  1.31E-04,  avg # of iterations =  3.0

     negative rho (up, down):  6.110E-05 3.156E-05
 
     Magnetic moment per site:
     atom:    1    charge:    0.8484    magn:   -0.0019    constr:    0.0000
     atom:    2    charge:    0.8463    magn:   -0.0018    constr:    0.0000
     atom:    3    charge:    0.8431    magn:   -0.0013    constr:    0.0000
     atom:    4    charge:    0.8443    magn:   -0.0041    constr:    0.0000
     atom:    5    charge:    0.8427    magn:   -0.0038    constr:    0.0000
     atom:    6    charge:    0.8423    magn:   -0.0008    constr:    0.0000
     atom:    7    charge:    0.4975    magn:    0.0002    constr:    0.0000
     atom:    8    charge:    0.4968    magn:    0.0000    constr:    0.0000
     atom:    9    charge:    0.4959    magn:   -0.0005    constr:    0.0000
     atom:   10    charge:    0.4966    magn:   -0.0005    constr:    0.0000
     atom:   11    charge:    0.4961    magn:   -0.0004    constr:    0.0000
     atom:   12    charge:    0.4959    magn:   -0.0008    constr:    0.0000
     atom:   13    charge:    5.8279    magn:    0.9904    constr:    0.0000

     total cpu time spent up to now is       62.1 secs

     The total energy is the sum of the following terms:

     one-electron contribution =    -703.32639183 Ry
     hartree contribution      =     350.69940293 Ry
     xc contribution           =     -30.73017502 Ry
     ewald contribution        =     268.46058250 Ry

     total energy              =    -114.21697830 Ry
     Harris-Foulkes estimate   =    -114.21628845 Ry
     estimated scf accuracy    <       0.02039865 Ry

     total magnetization       =     1.00 Bohr mag/cell
     absolute magnetization    =     1.48 Bohr mag/cell

     iteration #  8     ecut=   100.00 Ry     beta=0.70
     CG style diagonalization
     ethr =  5.51E-05,  avg # of iterations =  3.0

     negative rho (up, down):  1.125E-05 5.575E-06
 
     Magnetic moment per site:
     atom:    1    charge:    0.8477    magn:   -0.0041    constr:    0.0000
     atom:    2    charge:    0.8454    magn:   -0.0039    constr:    0.0000
     atom:    3    charge:    0.8442    magn:   -0.0031    constr:    0.0000
     atom:    4    charge:    0.8459    magn:   -0.0072    constr:    0.0000
     atom:    5    charge:    0.8442    magn:   -0.0070    constr:    0.0000
     atom:    6    charge:    0.8440    magn:   -0.0028    constr:    0.0000
     atom:    7    charge:    0.4970    magn:    0.0001    constr:    0.0000
     atom:    8    charge:    0.4964    magn:    0.0000    constr:    0.0000
     atom:    9    charge:    0.4956    magn:   -0.0003    constr:    0.0000
     atom:   10    charge:    0.4960    magn:   -0.0004    constr:    0.0000
     atom:   11    charge:    0.4954    magn:   -0.0003    constr:    0.0000
     atom:   12    charge:    0.4956    magn:   -0.0005    constr:    0.0000
     atom:   13    charge:    5.8255    magn:    1.0569    constr:    0.0000

     total cpu time spent up to now is       65.9 secs

     The total energy is the sum of the following terms:

     one-electron contribution =    -702.98072302 Ry
     hartree contribution      =     350.71619900 Ry
     xc contribution           =     -30.73673715 Ry
     ewald contribution        =     268.46058250 Ry

     total energy              =    -114.21844469 Ry
     Harris-Foulkes estimate   =    -114.21836269 Ry
     estimated scf accuracy    <       0.01080865 Ry

     total magnetization       =     1.00 Bohr mag/cell
     absolute magnetization    =     1.57 Bohr mag/cell

     iteration #  9     ecut=   100.00 Ry     beta=0.70
     CG style diagonalization
     ethr =  2.92E-05,  avg # of iterations =  3.1

     negative rho (up, down):  3.042E-06 2.539E-06
 
     Magnetic moment per site:
     atom:    1    charge:    0.8477    magn:   -0.0055    constr:    0.0000
     atom:    2    charge:    0.8457    magn:   -0.0052    constr:    0.0000
     atom:    3    charge:    0.8440    magn:   -0.0040    constr:    0.0000
     atom:    4    charge:    0.8459    magn:   -0.0093    constr:    0.0000
     atom:    5    charge:    0.8439    magn:   -0.0091    constr:    0.0000
     atom:    6    charge:    0.8440    magn:   -0.0037    constr:    0.0000
     atom:    7    charge:    0.4972    magn:    0.0001    constr:    0.0000
     atom:    8    charge:    0.4967    magn:    0.0000    constr:    0.0000
     atom:    9    charge:    0.4958    magn:   -0.0001    constr:    0.0000
     atom:   10    charge:    0.4959    magn:   -0.0002    constr:    0.0000
     atom:   11    charge:    0.4953    magn:   -0.0001    constr:    0.0000
     atom:   12    charge:    0.4958    magn:   -0.0002    constr:    0.0000
     atom:   13    charge:    5.8272    magn:    1.0954    constr:    0.0000

     total cpu time spent up to now is       69.8 secs

     The total energy is the sum of the following terms:

     one-electron contribution =    -702.95402334 Ry
     hartree contribution      =     350.73740661 Ry
     xc contribution           =     -30.74291146 Ry
     ewald contribution        =     268.46058250 Ry

     total energy              =    -114.21957317 Ry
     Harris-Foulkes estimate   =    -114.21893954 Ry
     estimated scf accuracy    <       0.00764091 Ry

     total magnetization       =     1.00 Bohr mag/cell
     absolute magnetization    =     1.62 Bohr mag/cell

     iteration # 10     ecut=   100.00 Ry     beta=0.70
     CG style diagonalization
     ethr =  2.07E-05,  avg # of iterations =  3.0

     negative rho (up, down):  9.774E-07 2.125E-06
 
     Magnetic moment per site:
     atom:    1    charge:    0.8477    magn:   -0.0073    constr:    0.0000
     atom:    2    charge:    0.8456    magn:   -0.0071    constr:    0.0000
     atom:    3    charge:    0.8436    magn:   -0.0046    constr:    0.0000
     atom:    4    charge:    0.8459    magn:   -0.0122    constr:    0.0000
     atom:    5    charge:    0.8442    magn:   -0.0120    constr:    0.0000
     atom:    6    charge:    0.8434    magn:   -0.0045    constr:    0.0000
     atom:    7    charge:    0.4975    magn:    0.0002    constr:    0.0000
     atom:    8    charge:    0.4969    magn:    0.0001    constr:    0.0000
     atom:    9    charge:    0.4959    magn:    0.0002    constr:    0.0000
     atom:   10    charge:    0.4961    magn:    0.0001    constr:    0.0000
     atom:   11    charge:    0.4955    magn:    0.0001    constr:    0.0000
     atom:   12    charge:    0.4959    magn:    0.0001    constr:    0.0000
     atom:   13    charge:    5.8248    magn:    1.1438    constr:    0.0000

     total cpu time spent up to now is       73.6 secs

     The total energy is the sum of the following terms:

     one-electron contribution =    -703.08654778 Ry
     hartree contribution      =     350.74679874 Ry
     xc contribution           =     -30.74576561 Ry
     ewald contribution        =     268.46058250 Ry

     total energy              =    -114.22018385 Ry
     Harris-Foulkes estimate   =    -114.21984967 Ry
     estimated scf accuracy    <       0.01431425 Ry

     total magnetization       =     1.00 Bohr mag/cell
     absolute magnetization    =     1.73 Bohr mag/cell

     iteration # 11     ecut=   100.00 Ry     beta=0.70
     CG style diagonalization
     ethr =  2.07E-05,  avg # of iterations =  3.0

     negative rho (up, down):  3.176E-10 1.263E-08
 
     Magnetic moment per site:
     atom:    1    charge:    0.8479    magn:   -0.0078    constr:    0.0000
     atom:    2    charge:    0.8458    magn:   -0.0077    constr:    0.0000
     atom:    3    charge:    0.8439    magn:   -0.0049    constr:    0.0000
     atom:    4    charge:    0.8459    magn:   -0.0132    constr:    0.0000
     atom:    5    charge:    0.8441    magn:   -0.0130    constr:    0.0000
     atom:    6    charge:    0.8437    magn:   -0.0049    constr:    0.0000
     atom:    7    charge:    0.4974    magn:    0.0002    constr:    0.0000
     atom:    8    charge:    0.4968    magn:    0.0002    constr:    0.0000
     atom:    9    charge:    0.4958    magn:    0.0002    constr:    0.0000
     atom:   10    charge:    0.4959    magn:    0.0002    constr:    0.0000
     atom:   11    charge:    0.4953    magn:    0.0002    constr:    0.0000
     atom:   12    charge:    0.4958    magn:    0.0002    constr:    0.0000
     atom:   13    charge:    5.8196    magn:    1.1609    constr:    0.0000

     total cpu time spent up to now is       77.6 secs

     The total energy is the sum of the following terms:

     one-electron contribution =    -703.11741272 Ry
     hartree contribution      =     350.73594079 Ry
     xc contribution           =     -30.74305799 Ry
     ewald contribution        =     268.46058250 Ry

     total energy              =    -114.22034156 Ry
     Harris-Foulkes estimate   =    -114.22059858 Ry
     estimated scf accuracy    <       0.01492940 Ry

     total magnetization       =     1.00 Bohr mag/cell
     absolute magnetization    =     1.79 Bohr mag/cell

     iteration # 12     ecut=   100.00 Ry     beta=0.70
     CG style diagonalization
     ethr =  2.07E-05,  avg # of iterations =  3.0

     negative rho (up, down):  2.058E-10 1.733E-08
 
     Magnetic moment per site:
     atom:    1    charge:    0.8478    magn:   -0.0078    constr:    0.0000
     atom:    2    charge:    0.8457    magn:   -0.0076    constr:    0.0000
     atom:    3    charge:    0.8438    magn:   -0.0049    constr:    0.0000
     atom:    4    charge:    0.8459    magn:   -0.0132    constr:    0.0000
     atom:    5    charge:    0.8441    magn:   -0.0130    constr:    0.0000
     atom:    6    charge:    0.8437    magn:   -0.0048    constr:    0.0000
     atom:    7    charge:    0.4974    magn:    0.0002    constr:    0.0000
     atom:    8    charge:    0.4968    magn:    0.0002    constr:    0.0000
     atom:    9    charge:    0.4958    magn:    0.0002    constr:    0.0000
     atom:   10    charge:    0.4960    magn:    0.0002    constr:    0.0000
     atom:   11    charge:    0.4953    magn:    0.0002    constr:    0.0000
     atom:   12    charge:    0.4958    magn:    0.0002    constr:    0.0000
     atom:   13    charge:    5.8202    magn:    1.1601    constr:    0.0000

     total cpu time spent up to now is       81.4 secs

     The total energy is the sum of the following terms:

     one-electron contribution =    -702.97032588 Ry
     hartree contribution      =     350.72963456 Ry
     xc contribution           =     -30.74243798 Ry
     ewald contribution        =     268.46058250 Ry

     total energy              =    -114.22051642 Ry
     Harris-Foulkes estimate   =    -114.22050532 Ry
     estimated scf accuracy    <       0.00683059 Ry

     total magnetization       =     1.00 Bohr mag/cell
     absolute magnetization    =     1.72 Bohr mag/cell

     iteration # 13     ecut=   100.00 Ry     beta=0.70
     CG style diagonalization
     ethr =  1.85E-05,  avg # of iterations =  3.0

     negative rho (up, down):  1.635E-07 4.705E-07
 
     Magnetic moment per site:
     atom:    1    charge:    0.8472    magn:   -0.0068    constr:    0.0000
     atom:    2    charge:    0.8451    magn:   -0.0066    constr:    0.0000
     atom:    3    charge:    0.8439    magn:   -0.0050    constr:    0.0000
     atom:    4    charge:    0.8456    magn:   -0.0118    constr:    0.0000
     atom:    5    charge:    0.8436    magn:   -0.0117    constr:    0.0000
     atom:    6    charge:    0.8437    magn:   -0.0049    constr:    0.0000
     atom:    7    charge:    0.4977    magn:    0.0001    constr:    0.0000
     atom:    8    charge:    0.4971    magn:    0.0001    constr:    0.0000
     atom:    9    charge:    0.4960    magn:    0.0001    constr:    0.0000
     atom:   10    charge:    0.4962    magn:    0.0000    constr:    0.0000
     atom:   11    charge:    0.4956    magn:    0.0000    constr:    0.0000
     atom:   12    charge:    0.4960    magn:    0.0001    constr:    0.0000
     atom:   13    charge:    5.8219    magn:    1.1428    constr:    0.0000

     total cpu time spent up to now is       85.3 secs

     The total energy is the sum of the following terms:

     one-electron contribution =    -703.00857872 Ry
     hartree contribution      =     350.71416342 Ry
     xc contribution           =     -30.74124755 Ry
     ewald contribution        =     268.46058250 Ry

     total energy              =    -114.22068303 Ry
     Harris-Foulkes estimate   =    -114.22052789 Ry
     estimated scf accuracy    <       0.00826425 Ry

     total magnetization       =     1.00 Bohr mag/cell
     absolute magnetization    =     1.74 Bohr mag/cell

     iteration # 14     ecut=   100.00 Ry     beta=0.70
     CG style diagonalization
     ethr =  1.85E-05,  avg # of iterations =  3.0

     negative rho (up, down):  1.205E-07 5.326E-08
 
     Magnetic moment per site:
     atom:    1    charge:    0.8462    magn:   -0.0011    constr:    0.0000
     atom:    2    charge:    0.8443    magn:   -0.0010    constr:    0.0000
     atom:    3    charge:    0.8446    magn:   -0.0050    constr:    0.0000
     atom:    4    charge:    0.8450    magn:   -0.0044    constr:    0.0000
     atom:    5    charge:    0.8430    magn:   -0.0047    constr:    0.0000
     atom:    6    charge:    0.8447    magn:   -0.0046    constr:    0.0000
     atom:    7    charge:    0.4978    magn:   -0.0002    constr:    0.0000
     atom:    8    charge:    0.4972    magn:   -0.0003    constr:    0.0000
     atom:    9    charge:    0.4961    magn:   -0.0005    constr:    0.0000
     atom:   10    charge:    0.4965    magn:   -0.0007    constr:    0.0000
     atom:   11    charge:    0.4959    magn:   -0.0005    constr:    0.0000
     atom:   12    charge:    0.4961    magn:   -0.0007    constr:    0.0000
     atom:   13    charge:    5.8227    magn:    1.0279    constr:    0.0000

     total cpu time spent up to now is       89.1 secs

     The total energy is the sum of the following terms:

     one-electron contribution =    -703.04945008 Ry
     hartree contribution      =     350.70473693 Ry
     xc contribution           =     -30.73460906 Ry
     ewald contribution        =     268.46058250 Ry

     total energy              =    -114.21948824 Ry
     Harris-Foulkes estimate   =    -114.22070988 Ry
     estimated scf accuracy    <       0.00911887 Ry

     total magnetization       =     1.00 Bohr mag/cell
     absolute magnetization    =     1.73 Bohr mag/cell

     iteration # 15     ecut=   100.00 Ry     beta=0.70
     CG style diagonalization
     ethr =  1.85E-05,  avg # of iterations =  3.0

     negative rho (up, down):  1.450E-07 6.138E-08
 
     Magnetic moment per site:
     atom:    1    charge:    0.8464    magn:   -0.0021    constr:    0.0000
     atom:    2    charge:    0.8445    magn:   -0.0020    constr:    0.0000
     atom:    3    charge:    0.8444    magn:   -0.0046    constr:    0.0000
     atom:    4    charge:    0.8452    magn:   -0.0054    constr:    0.0000
     atom:    5    charge:    0.8432    magn:   -0.0056    constr:    0.0000
     atom:    6    charge:    0.8446    magn:   -0.0041    constr:    0.0000
     atom:    7    charge:    0.4977    magn:   -0.0002    constr:    0.0000
     atom:    8    charge:    0.4971    magn:   -0.0003    constr:    0.0000
     atom:    9    charge:    0.4961    magn:   -0.0004    constr:    0.0000
     atom:   10    charge:    0.4964    magn:   -0.0007    constr:    0.0000
     atom:   11    charge:    0.4958    magn:   -0.0005    constr:    0.0000
     atom:   12    charge:    0.4961    magn:   -0.0006    constr:    0.0000
     atom:   13    charge:    5.8229    magn:    1.0436    constr:    0.0000

     total cpu time spent up to now is       92.9 secs

     The total energy is the sum of the following terms:

     one-electron contribution =    -702.75067821 Ry
     hartree contribution      =     350.70656200 Ry
     xc contribution           =     -30.73460707 Ry
     ewald contribution        =     268.46058250 Ry

     total energy              =    -114.21991610 Ry
     Harris-Foulkes estimate   =    -114.22038359 Ry
     estimated scf accuracy    <       0.00085193 Ry

     total magnetization       =     1.00 Bohr mag/cell
     absolute magnetization    =     1.47 Bohr mag/cell

     iteration # 16     ecut=   100.00 Ry     beta=0.70
     CG style diagonalization
     ethr =  2.30E-06,  avg # of iterations =  3.2

     negative rho (up, down):  3.462E-08 5.115E-08
 
     Magnetic moment per site:
     atom:    1    charge:    0.8462    magn:   -0.0027    constr:    0.0000
     atom:    2    charge:    0.8444    magn:   -0.0026    constr:    0.0000
     atom:    3    charge:    0.8444    magn:   -0.0059    constr:    0.0000
     atom:    4    charge:    0.8453    magn:   -0.0067    constr:    0.0000
     atom:    5    charge:    0.8432    magn:   -0.0069    constr:    0.0000
     atom:    6    charge:    0.8447    magn:   -0.0055    constr:    0.0000
     atom:    7    charge:    0.4978    magn:   -0.0001    constr:    0.0000
     atom:    8    charge:    0.4972    magn:   -0.0002    constr:    0.0000
     atom:    9    charge:    0.4961    magn:   -0.0002    constr:    0.0000
     atom:   10    charge:    0.4964    magn:   -0.0004    constr:    0.0000
     atom:   11    charge:    0.4957    magn:   -0.0003    constr:    0.0000
     atom:   12    charge:    0.4961    magn:   -0.0004    constr:    0.0000
     atom:   13    charge:    5.8222    magn:    1.0669    constr:    0.0000

     total cpu time spent up to now is       97.0 secs

     The total energy is the sum of the following terms:

     one-electron contribution =    -702.77890384 Ry
     hartree contribution      =     350.70759919 Ry
     xc contribution           =     -30.73768707 Ry
     ewald contribution        =     268.46058250 Ry

     total energy              =    -114.22052450 Ry
     Harris-Foulkes estimate   =    -114.22006757 Ry
     estimated scf accuracy    <       0.00139878 Ry

     total magnetization       =     1.00 Bohr mag/cell
     absolute magnetization    =     1.50 Bohr mag/cell

     iteration # 17     ecut=   100.00 Ry     beta=0.70
     CG style diagonalization
     ethr =  2.30E-06,  avg # of iterations =  3.2

     negative rho (up, down):  6.779E-08 8.965E-08
 
     Magnetic moment per site:
     atom:    1    charge:    0.8465    magn:   -0.0022    constr:    0.0000
     atom:    2    charge:    0.8445    magn:   -0.0021    constr:    0.0000
     atom:    3    charge:    0.8444    magn:   -0.0063    constr:    0.0000
     atom:    4    charge:    0.8453    magn:   -0.0060    constr:    0.0000
     atom:    5    charge:    0.8433    magn:   -0.0063    constr:    0.0000
     atom:    6    charge:    0.8444    magn:   -0.0060    constr:    0.0000
     atom:    7    charge:    0.4977    magn:   -0.0002    constr:    0.0000
     atom:    8    charge:    0.4972    magn:   -0.0002    constr:    0.0000
     atom:    9    charge:    0.4961    magn:   -0.0003    constr:    0.0000
     atom:   10    charge:    0.4964    magn:   -0.0005    constr:    0.0000
     atom:   11    charge:    0.4957    magn:   -0.0004    constr:    0.0000
     atom:   12    charge:    0.4961    magn:   -0.0004    constr:    0.0000
     atom:   13    charge:    5.8227    magn:    1.0634    constr:    0.0000

     total cpu time spent up to now is      101.0 secs

     The total energy is the sum of the following terms:

     one-electron contribution =    -702.83246449 Ry
     hartree contribution      =     350.71312804 Ry
     xc contribution           =     -30.73753762 Ry
     ewald contribution        =     268.46058250 Ry

     total energy              =    -114.22086968 Ry
     Harris-Foulkes estimate   =    -114.22082911 Ry
     estimated scf accuracy    <       0.00180671 Ry

     total magnetization       =     1.00 Bohr mag/cell
     absolute magnetization    =     1.54 Bohr mag/cell

     iteration # 18     ecut=   100.00 Ry     beta=0.70
     CG style diagonalization
     ethr =  2.30E-06,  avg # of iterations =  3.0

     negative rho (up, down):  1.147E-07 1.598E-07
 
     Magnetic moment per site:
     atom:    1    charge:    0.8468    magn:   -0.0016    constr:    0.0000
     atom:    2    charge:    0.8447    magn:   -0.0016    constr:    0.0000
     atom:    3    charge:    0.8443    magn:   -0.0082    constr:    0.0000
     atom:    4    charge:    0.8452    magn:   -0.0058    constr:    0.0000
     atom:    5    charge:    0.8435    magn:   -0.0061    constr:    0.0000
     atom:    6    charge:    0.8443    magn:   -0.0079    constr:    0.0000
     atom:    7    charge:    0.4978    magn:   -0.0003    constr:    0.0000
     atom:    8    charge:    0.4972    magn:   -0.0003    constr:    0.0000
     atom:    9    charge:    0.4960    magn:   -0.0002    constr:    0.0000
     atom:   10    charge:    0.4964    magn:   -0.0006    constr:    0.0000
     atom:   11    charge:    0.4957    magn:   -0.0005    constr:    0.0000
     atom:   12    charge:    0.4961    magn:   -0.0003    constr:    0.0000
     atom:   13    charge:    5.8217    magn:    1.0762    constr:    0.0000

     total cpu time spent up to now is      104.9 secs

     The total energy is the sum of the following terms:

     one-electron contribution =    -702.84220800 Ry
     hartree contribution      =     350.72085051 Ry
     xc contribution           =     -30.73980781 Ry
     ewald contribution        =     268.46058250 Ry

     total energy              =    -114.22117620 Ry
     Harris-Foulkes estimate   =    -114.22087973 Ry
     estimated scf accuracy    <       0.00216062 Ry

     total magnetization       =     1.00 Bohr mag/cell
     absolute magnetization    =     1.54 Bohr mag/cell

     iteration # 19     ecut=   100.00 Ry     beta=0.70
     CG style diagonalization
     ethr =  2.30E-06,  avg # of iterations =  3.1

     negative rho (up, down):  9.685E-08 1.403E-07
 
     Magnetic moment per site:
     atom:    1    charge:    0.8468    magn:   -0.0015    constr:    0.0000
     atom:    2    charge:    0.8448    magn:   -0.0016    constr:    0.0000
     atom:    3    charge:    0.8445    magn:   -0.0092    constr:    0.0000
     atom:    4    charge:    0.8452    magn:   -0.0062    constr:    0.0000
     atom:    5    charge:    0.8433    magn:   -0.0065    constr:    0.0000
     atom:    6    charge:    0.8444    magn:   -0.0090    constr:    0.0000
     atom:    7    charge:    0.4978    magn:   -0.0003    constr:    0.0000
     atom:    8    charge:    0.4972    magn:   -0.0003    constr:    0.0000
     atom:    9    charge:    0.4960    magn:   -0.0001    constr:    0.0000
     atom:   10    charge:    0.4964    magn:   -0.0005    constr:    0.0000
     atom:   11    charge:    0.4957    magn:   -0.0004    constr:    0.0000
     atom:   12    charge:    0.4961    magn:   -0.0001    constr:    0.0000
     atom:   13    charge:    5.8210    magn:    1.0875    constr:    0.0000

     total cpu time spent up to now is      108.9 secs

     The total energy is the sum of the following terms:

     one-electron contribution =    -702.84598815 Ry
     hartree contribution      =     350.73522584 Ry
     xc contribution           =     -30.74368414 Ry
     ewald contribution        =     268.46058250 Ry

     total energy              =    -114.22172187 Ry
     Harris-Foulkes estimate   =    -114.22147666 Ry
     estimated scf accuracy    <       0.00194050 Ry

     total magnetization       =     1.00 Bohr mag/cell
     absolute magnetization    =     1.55 Bohr mag/cell

     iteration # 20     ecut=   100.00 Ry     beta=0.70
     CG style diagonalization
     ethr =  2.30E-06,  avg # of iterations =  3.1

     negative rho (up, down):  7.908E-08 1.115E-07
 
     Magnetic moment per site:
     atom:    1    charge:    0.8468    magn:   -0.0015    constr:    0.0000
     atom:    2    charge:    0.8447    magn:   -0.0015    constr:    0.0000
     atom:    3    charge:    0.8443    magn:   -0.0089    constr:    0.0000
     atom:    4    charge:    0.8452    magn:   -0.0059    constr:    0.0000
     atom:    5    charge:    0.8433    magn:   -0.0063    constr:    0.0000
     atom:    6    charge:    0.8442    magn:   -0.0086    constr:    0.0000
     atom:    7    charge:    0.4979    magn:   -0.0003    constr:    0.0000
     atom:    8    charge:    0.4972    magn:   -0.0003    constr:    0.0000
     atom:    9    charge:    0.4961    magn:   -0.0001    constr:    0.0000
     atom:   10    charge:    0.4964    magn:   -0.0005    constr:    0.0000
     atom:   11    charge:    0.4957    magn:   -0.0004    constr:    0.0000
     atom:   12    charge:    0.4961    magn:   -0.0002    constr:    0.0000
     atom:   13    charge:    5.8212    magn:    1.0828    constr:    0.0000

     total cpu time spent up to now is      112.9 secs

     The total energy is the sum of the following terms:

     one-electron contribution =    -702.83707264 Ry
     hartree contribution      =     350.72690623 Ry
     xc contribution           =     -30.74167462 Ry
     ewald contribution        =     268.46058250 Ry

     total energy              =    -114.22189740 Ry
     Harris-Foulkes estimate   =    -114.22199485 Ry
     estimated scf accuracy    <       0.00160969 Ry

     total magnetization       =     1.00 Bohr mag/cell
     absolute magnetization    =     1.55 Bohr mag/cell

     iteration # 21     ecut=   100.00 Ry     beta=0.70
     CG style diagonalization
     ethr =  2.30E-06,  avg # of iterations =  3.0
 
     Magnetic moment per site:
     atom:    1    charge:    0.8461    magn:   -0.0019    constr:    0.0000
     atom:    2    charge:    0.8440    magn:   -0.0019    constr:    0.0000
     atom:    3    charge:    0.8448    magn:   -0.0074    constr:    0.0000
     atom:    4    charge:    0.8452    magn:   -0.0066    constr:    0.0000
     atom:    5    charge:    0.8430    magn:   -0.0067    constr:    0.0000
     atom:    6    charge:    0.8446    magn:   -0.0073    constr:    0.0000
     atom:    7    charge:    0.4980    magn:    0.0001    constr:    0.0000
     atom:    8    charge:    0.4973    magn:    0.0001    constr:    0.0000
     atom:    9    charge:    0.4961    magn:    0.0000    constr:    0.0000
     atom:   10    charge:    0.4965    magn:    0.0000    constr:    0.0000
     atom:   11    charge:    0.4959    magn:    0.0000    constr:    0.0000
     atom:   12    charge:    0.4961    magn:   -0.0001    constr:    0.0000
     atom:   13    charge:    5.8207    magn:    1.0627    constr:    0.0000

     total cpu time spent up to now is      116.7 secs

     The total energy is the sum of the following terms:

     one-electron contribution =    -702.84352378 Ry
     hartree contribution      =     350.72109715 Ry
     xc contribution           =     -30.74180934 Ry
     ewald contribution        =     268.46058250 Ry

     total energy              =    -114.22191624 Ry
     Harris-Foulkes estimate   =    -114.22190728 Ry
     estimated scf accuracy    <       0.00167948 Ry

     total magnetization       =     1.00 Bohr mag/cell
     absolute magnetization    =     1.55 Bohr mag/cell

     iteration # 22     ecut=   100.00 Ry     beta=0.70
     CG style diagonalization
     ethr =  2.30E-06,  avg # of iterations =  3.0
 
     Magnetic moment per site:
     atom:    1    charge:    0.8466    magn:    0.0010    constr:    0.0000
     atom:    2    charge:    0.8448    magn:    0.0008    constr:    0.0000
     atom:    3    charge:    0.8441    magn:   -0.0114    constr:    0.0000
     atom:    4    charge:    0.8453    magn:   -0.0036    constr:    0.0000
     atom:    5    charge:    0.8434    magn:   -0.0040    constr:    0.0000
     atom:    6    charge:    0.8438    magn:   -0.0112    constr:    0.0000
     atom:    7    charge:    0.4980    magn:   -0.0003    constr:    0.0000
     atom:    8    charge:    0.4973    magn:   -0.0003    constr:    0.0000
     atom:    9    charge:    0.4960    magn:    0.0001    constr:    0.0000
     atom:   10    charge:    0.4965    magn:   -0.0005    constr:    0.0000
     atom:   11    charge:    0.4958    magn:   -0.0004    constr:    0.0000
     atom:   12    charge:    0.4961    magn:    0.0000    constr:    0.0000
     atom:   13    charge:    5.8227    magn:    1.0586    constr:    0.0000

     total cpu time spent up to now is      120.5 secs

     The total energy is the sum of the following terms:

     one-electron contribution =    -702.80586718 Ry
     hartree contribution      =     350.73850618 Ry
     xc contribution           =     -30.74292623 Ry
     ewald contribution        =     268.46058250 Ry

     total energy              =    -114.22176955 Ry
     Harris-Foulkes estimate   =    -114.22196465 Ry
     estimated scf accuracy    <       0.00094631 Ry

     total magnetization       =     1.00 Bohr mag/cell
     absolute magnetization    =     1.50 Bohr mag/cell

     iteration # 23     ecut=   100.00 Ry     beta=0.70
     CG style diagonalization
     ethr =  2.30E-06,  avg # of iterations =  3.2

     negative rho (up, down):  2.725E-06 1.390E-06
 
     Magnetic moment per site:
     atom:    1    charge:    0.8460    magn:   -0.0004    constr:    0.0000
     atom:    2    charge:    0.8440    magn:   -0.0005    constr:    0.0000
     atom:    3    charge:    0.8448    magn:   -0.0074    constr:    0.0000
     atom:    4    charge:    0.8452    magn:   -0.0049    constr:    0.0000
     atom:    5    charge:    0.8431    magn:   -0.0050    constr:    0.0000
     atom:    6    charge:    0.8448    magn:   -0.0073    constr:    0.0000
     atom:    7    charge:    0.4980    magn:    0.0000    constr:    0.0000
     atom:    8    charge:    0.4973    magn:    0.0000    constr:    0.0000
     atom:    9    charge:    0.4961    magn:    0.0000    constr:    0.0000
     atom:   10    charge:    0.4965    magn:   -0.0001    constr:    0.0000
     atom:   11    charge:    0.4959    magn:    0.0000    constr:    0.0000
     atom:   12    charge:    0.4961    magn:   -0.0001    constr:    0.0000
     atom:   13    charge:    5.8238    magn:    1.0308    constr:    0.0000

     total cpu time spent up to now is      124.5 secs

     The total energy is the sum of the following terms:

     one-electron contribution =    -702.87807919 Ry
     hartree contribution      =     350.73658979 Ry
     xc contribution           =     -30.73549667 Ry
     ewald contribution        =     268.46058250 Ry

     total energy              =    -114.22185543 Ry
     Harris-Foulkes estimate   =    -114.22274971 Ry
     estimated scf accuracy    <       0.00206119 Ry

     total magnetization       =     1.00 Bohr mag/cell
     absolute magnetization    =     1.53 Bohr mag/cell

     iteration # 24     ecut=   100.00 Ry     beta=0.70
     CG style diagonalization
     ethr =  2.30E-06,  avg # of iterations =  3.1

     negative rho (up, down):  5.098E-06 2.666E-06
 
     Magnetic moment per site:
     atom:    1    charge:    0.8457    magn:    0.0004    constr:    0.0000
     atom:    2    charge:    0.8438    magn:    0.0003    constr:    0.0000
     atom:    3    charge:    0.8449    magn:   -0.0089    constr:    0.0000
     atom:    4    charge:    0.8451    magn:   -0.0043    constr:    0.0000
     atom:    5    charge:    0.8430    magn:   -0.0044    constr:    0.0000
     atom:    6    charge:    0.8449    magn:   -0.0088    constr:    0.0000
     atom:    7    charge:    0.4981    magn:    0.0000    constr:    0.0000
     atom:    8    charge:    0.4974    magn:    0.0000    constr:    0.0000
     atom:    9    charge:    0.4961    magn:    0.0002    constr:    0.0000
     atom:   10    charge:    0.4965    magn:   -0.0001    constr:    0.0000
     atom:   11    charge:    0.4959    magn:    0.0000    constr:    0.0000
     atom:   12    charge:    0.4960    magn:    0.0001    constr:    0.0000
     atom:   13    charge:    5.8241    magn:    1.0292    constr:    0.0000

     total cpu time spent up to now is      128.5 secs

     The total energy is the sum of the following terms:

     one-electron contribution =    -702.81340551 Ry
     hartree contribution      =     350.74396075 Ry
     xc contribution           =     -30.73514650 Ry
     ewald contribution        =     268.46058250 Ry

     total energy              =    -114.22202056 Ry
     Harris-Foulkes estimate   =    -114.22215346 Ry
     estimated scf accuracy    <       0.00149017 Ry

     total magnetization       =     1.00 Bohr mag/cell
     absolute magnetization    =     1.50 Bohr mag/cell

     iteration # 25     ecut=   100.00 Ry     beta=0.70
     CG style diagonalization
     ethr =  2.30E-06,  avg # of iterations =  3.2

     negative rho (up, down):  1.485E-06 1.351E-04
 
     Magnetic moment per site:
     atom:    1    charge:    0.8454    magn:    0.0007    constr:    0.0000
     atom:    2    charge:    0.8438    magn:    0.0005    constr:    0.0000
     atom:    3    charge:    0.8460    magn:   -0.0124    constr:    0.0000
     atom:    4    charge:    0.8445    magn:   -0.0054    constr:    0.0000
     atom:    5    charge:    0.8425    magn:   -0.0055    constr:    0.0000
     atom:    6    charge:    0.8460    magn:   -0.0126    constr:    0.0000
     atom:    7    charge:    0.4983    magn:    0.0001    constr:    0.0000
     atom:    8    charge:    0.4977    magn:    0.0001    constr:    0.0000
     atom:    9    charge:    0.4961    magn:    0.0004    constr:    0.0000
     atom:   10    charge:    0.4966    magn:    0.0004    constr:    0.0000
     atom:   11    charge:    0.4960    magn:    0.0003    constr:    0.0000
     atom:   12    charge:    0.4961    magn:    0.0004    constr:    0.0000
     atom:   13    charge:    5.8205    magn:    1.0604    constr:    0.0000

     total cpu time spent up to now is      132.4 secs

     The total energy is the sum of the following terms:

     one-electron contribution =    -702.83435928 Ry
     hartree contribution      =     350.82524738 Ry
     xc contribution           =     -30.77048226 Ry
     ewald contribution        =     268.46058250 Ry

     total energy              =    -114.21505475 Ry
     Harris-Foulkes estimate   =    -114.22293743 Ry
     estimated scf accuracy    <       0.00133520 Ry

     total magnetization       =     1.00 Bohr mag/cell
     absolute magnetization    =     1.50 Bohr mag/cell

     iteration # 26     ecut=   100.00 Ry     beta=0.70
     CG style diagonalization
     ethr =  2.30E-06,  avg # of iterations =  4.2

     negative rho (up, down):  1.246E-06 2.985E-06
 
     Magnetic moment per site:
     atom:    1    charge:    0.8454    magn:   -0.0002    constr:    0.0000
     atom:    2    charge:    0.8440    magn:   -0.0004    constr:    0.0000
     atom:    3    charge:    0.8449    magn:   -0.0111    constr:    0.0000
     atom:    4    charge:    0.8451    magn:   -0.0059    constr:    0.0000
     atom:    5    charge:    0.8431    magn:   -0.0060    constr:    0.0000
     atom:    6    charge:    0.8450    magn:   -0.0112    constr:    0.0000
     atom:    7    charge:    0.4983    magn:    0.0000    constr:    0.0000
     atom:    8    charge:    0.4977    magn:    0.0000    constr:    0.0000
     atom:    9    charge:    0.4961    magn:    0.0004    constr:    0.0000
     atom:   10    charge:    0.4966    magn:    0.0002    constr:    0.0000
     atom:   11    charge:    0.4960    magn:    0.0001    constr:    0.0000
     atom:   12    charge:    0.4961    magn:    0.0004    constr:    0.0000
     atom:   13    charge:    5.8220    magn:    1.0666    constr:    0.0000

     total cpu time spent up to now is      137.2 secs

     The total energy is the sum of the following terms:

     one-electron contribution =    -702.72308385 Ry
     hartree contribution      =     350.80454864 Ry
     xc contribution           =     -30.75360596 Ry
     ewald contribution        =     268.46058250 Ry

     total energy              =    -114.22332104 Ry
     Harris-Foulkes estimate   =    -114.22283696 Ry
     estimated scf accuracy    <       0.00257340 Ry

     total magnetization       =     1.00 Bohr mag/cell
     absolute magnetization    =     1.43 Bohr mag/cell

     iteration # 27     ecut=   100.00 Ry     beta=0.70
     CG style diagonalization
     ethr =  2.30E-06,  avg # of iterations =  3.3

     negative rho (up, down):  8.645E-07 4.272E-07
 
     Magnetic moment per site:
     atom:    1    charge:    0.8460    magn:   -0.0014    constr:    0.0000
     atom:    2    charge:    0.8438    magn:   -0.0015    constr:    0.0000
     atom:    3    charge:    0.8440    magn:   -0.0100    constr:    0.0000
     atom:    4    charge:    0.8453    magn:   -0.0067    constr:    0.0000
     atom:    5    charge:    0.8433    magn:   -0.0068    constr:    0.0000
     atom:    6    charge:    0.8440    magn:   -0.0100    constr:    0.0000
     atom:    7    charge:    0.4983    magn:   -0.0001    constr:    0.0000
     atom:    8    charge:    0.4977    magn:   -0.0001    constr:    0.0000
     atom:    9    charge:    0.4963    magn:    0.0005    constr:    0.0000
     atom:   10    charge:    0.4966    magn:    0.0000    constr:    0.0000
     atom:   11    charge:    0.4959    magn:    0.0000    constr:    0.0000
     atom:   12    charge:    0.4962    magn:    0.0005    constr:    0.0000
     atom:   13    charge:    5.8231    magn:    1.0778    constr:    0.0000

     total cpu time spent up to now is      141.2 secs

     The total energy is the sum of the following terms:

     one-electron contribution =    -702.74703701 Ry
     hartree contribution      =     350.79083129 Ry
     xc contribution           =     -30.74264529 Ry
     ewald contribution        =     268.46058250 Ry

     total energy              =    -114.22396441 Ry
     Harris-Foulkes estimate   =    -114.22389221 Ry
     estimated scf accuracy    <       0.00039555 Ry

     total magnetization       =     1.00 Bohr mag/cell
     absolute magnetization    =     1.46 Bohr mag/cell

     iteration # 28     ecut=   100.00 Ry     beta=0.70
     CG style diagonalization
     ethr =  1.07E-06,  avg # of iterations =  3.4

     negative rho (up, down):  2.409E-07 1.144E-07
 
     Magnetic moment per site:
     atom:    1    charge:    0.8458    magn:   -0.0024    constr:    0.0000
     atom:    2    charge:    0.8439    magn:   -0.0025    constr:    0.0000
     atom:    3    charge:    0.8445    magn:   -0.0095    constr:    0.0000
     atom:    4    charge:    0.8452    magn:   -0.0079    constr:    0.0000
     atom:    5    charge:    0.8432    magn:   -0.0079    constr:    0.0000
     atom:    6    charge:    0.8445    magn:   -0.0095    constr:    0.0000
     atom:    7    charge:    0.4983    magn:    0.0000    constr:    0.0000
     atom:    8    charge:    0.4977    magn:    0.0000    constr:    0.0000
     atom:    9    charge:    0.4963    magn:    0.0004    constr:    0.0000
     atom:   10    charge:    0.4966    magn:    0.0002    constr:    0.0000
     atom:   11    charge:    0.4959    magn:    0.0002    constr:    0.0000
     atom:   12    charge:    0.4963    magn:    0.0004    constr:    0.0000
     atom:   13    charge:    5.8228    magn:    1.0919    constr:    0.0000

     total cpu time spent up to now is      145.3 secs

     The total energy is the sum of the following terms:

     one-electron contribution =    -702.79965866 Ry
     hartree contribution      =     350.81143193 Ry
     xc contribution           =     -30.74631326 Ry
     ewald contribution        =     268.46058250 Ry

     total energy              =    -114.22372126 Ry
     Harris-Foulkes estimate   =    -114.22416872 Ry
     estimated scf accuracy    <       0.00029947 Ry

     total magnetization       =     1.00 Bohr mag/cell
     absolute magnetization    =     1.51 Bohr mag/cell

     iteration # 29     ecut=   100.00 Ry     beta=0.70
     CG style diagonalization
     ethr =  8.09E-07,  avg # of iterations =  3.4

     negative rho (up, down):  2.134E-08 7.551E-09
 
     Magnetic moment per site:
     atom:    1    charge:    0.8459    magn:   -0.0034    constr:    0.0000
     atom:    2    charge:    0.8439    magn:   -0.0034    constr:    0.0000
     atom:    3    charge:    0.8446    magn:   -0.0087    constr:    0.0000
     atom:    4    charge:    0.8451    magn:   -0.0088    constr:    0.0000
     atom:    5    charge:    0.8431    magn:   -0.0088    constr:    0.0000
     atom:    6    charge:    0.8446    magn:   -0.0087    constr:    0.0000
     atom:    7    charge:    0.4983    magn:    0.0001    constr:    0.0000
     atom:    8    charge:    0.4977    magn:    0.0001    constr:    0.0000
     atom:    9    charge:    0.4963    magn:    0.0004    constr:    0.0000
     atom:   10    charge:    0.4966    magn:    0.0002    constr:    0.0000
     atom:   11    charge:    0.4959    magn:    0.0002    constr:    0.0000
     atom:   12    charge:    0.4962    magn:    0.0004    constr:    0.0000
     atom:   13    charge:    5.8226    magn:    1.1022    constr:    0.0000

     total cpu time spent up to now is      149.3 secs

     The total energy is the sum of the following terms:

     one-electron contribution =    -702.78990203 Ry
     hartree contribution      =     350.82286236 Ry
     xc contribution           =     -30.74573300 Ry
     ewald contribution        =     268.46058250 Ry

     total energy              =    -114.22429518 Ry
     Harris-Foulkes estimate   =    -114.22438869 Ry
     estimated scf accuracy    <       0.00007996 Ry

     total magnetization       =     1.00 Bohr mag/cell
     absolute magnetization    =     1.51 Bohr mag/cell

     iteration # 30     ecut=   100.00 Ry     beta=0.70
     CG style diagonalization
     ethr =  2.16E-07,  avg # of iterations =  3.9

     negative rho (up, down):  9.740E-08 3.353E-07
 
     Magnetic moment per site:
     atom:    1    charge:    0.8458    magn:   -0.0036    constr:    0.0000
     atom:    2    charge:    0.8438    magn:   -0.0036    constr:    0.0000
     atom:    3    charge:    0.8447    magn:   -0.0090    constr:    0.0000
     atom:    4    charge:    0.8450    magn:   -0.0089    constr:    0.0000
     atom:    5    charge:    0.8431    magn:   -0.0089    constr:    0.0000
     atom:    6    charge:    0.8447    magn:   -0.0090    constr:    0.0000
     atom:    7    charge:    0.4984    magn:    0.0001    constr:    0.0000
     atom:    8    charge:    0.4978    magn:    0.0001    constr:    0.0000
     atom:    9    charge:    0.4962    magn:    0.0003    constr:    0.0000
     atom:   10    charge:    0.4966    magn:    0.0003    constr:    0.0000
     atom:   11    charge:    0.4959    magn:    0.0003    constr:    0.0000
     atom:   12    charge:    0.4962    magn:    0.0003    constr:    0.0000
     atom:   13    charge:    5.8228    magn:    1.1057    constr:    0.0000

     total cpu time spent up to now is      153.9 secs

     The total energy is the sum of the following terms:

     one-electron contribution =    -702.77712712 Ry
     hartree contribution      =     350.83909275 Ry
     xc contribution           =     -30.75151516 Ry
     ewald contribution        =     268.46058250 Ry

     total energy              =    -114.22394202 Ry
     Harris-Foulkes estimate   =    -114.22444600 Ry
     estimated scf accuracy    <       0.00002119 Ry

     total magnetization       =     1.00 Bohr mag/cell
     absolute magnetization    =     1.51 Bohr mag/cell

     iteration # 31     ecut=   100.00 Ry     beta=0.70
     CG style diagonalization
     ethr =  5.73E-08,  avg # of iterations =  4.7
 
     Magnetic moment per site:
     atom:    1    charge:    0.8459    magn:   -0.0039    constr:    0.0000
     atom:    2    charge:    0.8440    magn:   -0.0039    constr:    0.0000
     atom:    3    charge:    0.8446    magn:   -0.0085    constr:    0.0000
     atom:    4    charge:    0.8450    magn:   -0.0092    constr:    0.0000
     atom:    5    charge:    0.8431    magn:   -0.0091    constr:    0.0000
     atom:    6    charge:    0.8446    magn:   -0.0085    constr:    0.0000
     atom:    7    charge:    0.4984    magn:    0.0002    constr:    0.0000
     atom:    8    charge:    0.4977    magn:    0.0002    constr:    0.0000
     atom:    9    charge:    0.4962    magn:    0.0003    constr:    0.0000
     atom:   10    charge:    0.4966    magn:    0.0003    constr:    0.0000
     atom:   11    charge:    0.4959    magn:    0.0003    constr:    0.0000
     atom:   12    charge:    0.4962    magn:    0.0003    constr:    0.0000
     atom:   13    charge:    5.8223    magn:    1.1071    constr:    0.0000

     total cpu time spent up to now is      159.0 secs

     The total energy is the sum of the following terms:

     one-electron contribution =    -702.76539055 Ry
     hartree contribution      =     350.83097236 Ry
     xc contribution           =     -30.74531537 Ry
     ewald contribution        =     268.46058250 Ry

     total energy              =    -114.22436097 Ry
     Harris-Foulkes estimate   =    -114.22438951 Ry
     estimated scf accuracy    <       0.00012883 Ry

     total magnetization       =     1.00 Bohr mag/cell
     absolute magnetization    =     1.50 Bohr mag/cell

     iteration # 32     ecut=   100.00 Ry     beta=0.70
     CG style diagonalization
     ethr =  5.73E-08,  avg # of iterations =  3.9
 
     Magnetic moment per site:
     atom:    1    charge:    0.8459    magn:   -0.0035    constr:    0.0000
     atom:    2    charge:    0.8439    magn:   -0.0035    constr:    0.0000
     atom:    3    charge:    0.8446    magn:   -0.0088    constr:    0.0000
     atom:    4    charge:    0.8451    magn:   -0.0088    constr:    0.0000
     atom:    5    charge:    0.8431    magn:   -0.0087    constr:    0.0000
     atom:    6    charge:    0.8446    magn:   -0.0088    constr:    0.0000
     atom:    7    charge:    0.4984    magn:    0.0002    constr:    0.0000
     atom:    8    charge:    0.4977    magn:    0.0002    constr:    0.0000
     atom:    9    charge:    0.4962    magn:    0.0003    constr:    0.0000
     atom:   10    charge:    0.4966    magn:    0.0003    constr:    0.0000
     atom:   11    charge:    0.4959    magn:    0.0003    constr:    0.0000
     atom:   12    charge:    0.4962    magn:    0.0003    constr:    0.0000
     atom:   13    charge:    5.8226    magn:    1.1022    constr:    0.0000

     total cpu time spent up to now is      163.4 secs

     The total energy is the sum of the following terms:

     one-electron contribution =    -702.76334556 Ry
     hartree contribution      =     350.82304534 Ry
     xc contribution           =     -30.74298287 Ry
     ewald contribution        =     268.46058250 Ry

     total energy              =    -114.22439959 Ry
     Harris-Foulkes estimate   =    -114.22447234 Ry
     estimated scf accuracy    <       0.00001154 Ry

     total magnetization       =     1.00 Bohr mag/cell
     absolute magnetization    =     1.51 Bohr mag/cell

     iteration # 33     ecut=   100.00 Ry     beta=0.70
     CG style diagonalization
     ethr =  3.12E-08,  avg # of iterations =  4.0
 
     Magnetic moment per site:
     atom:    1    charge:    0.8458    magn:   -0.0035    constr:    0.0000
     atom:    2    charge:    0.8438    magn:   -0.0035    constr:    0.0000
     atom:    3    charge:    0.8447    magn:   -0.0091    constr:    0.0000
     atom:    4    charge:    0.8450    magn:   -0.0088    constr:    0.0000
     atom:    5    charge:    0.8431    magn:   -0.0087    constr:    0.0000
     atom:    6    charge:    0.8447    magn:   -0.0091    constr:    0.0000
     atom:    7    charge:    0.4984    magn:    0.0002    constr:    0.0000
     atom:    8    charge:    0.4978    magn:    0.0002    constr:    0.0000
     atom:    9    charge:    0.4962    magn:    0.0003    constr:    0.0000
     atom:   10    charge:    0.4966    magn:    0.0003    constr:    0.0000
     atom:   11    charge:    0.4959    magn:    0.0003    constr:    0.0000
     atom:   12    charge:    0.4962    magn:    0.0003    constr:    0.0000
     atom:   13    charge:    5.8228    magn:    1.1041    constr:    0.0000

     total cpu time spent up to now is      167.9 secs

     The total energy is the sum of the following terms:

     one-electron contribution =    -702.77459155 Ry
     hartree contribution      =     350.83029645 Ry
     xc contribution           =     -30.74587462 Ry
     ewald contribution        =     268.46058250 Ry

     total energy              =    -114.22442943 Ry
     Harris-Foulkes estimate   =    -114.22444180 Ry
     estimated scf accuracy    <       0.00004756 Ry

     total magnetization       =     1.00 Bohr mag/cell
     absolute magnetization    =     1.51 Bohr mag/cell

     iteration # 34     ecut=   100.00 Ry     beta=0.70
     CG style diagonalization
     ethr =  3.12E-08,  avg # of iterations =  3.6
 
     Magnetic moment per site:
     atom:    1    charge:    0.8458    magn:   -0.0035    constr:    0.0000
     atom:    2    charge:    0.8438    magn:   -0.0035    constr:    0.0000
     atom:    3    charge:    0.8447    magn:   -0.0092    constr:    0.0000
     atom:    4    charge:    0.8450    magn:   -0.0088    constr:    0.0000
     atom:    5    charge:    0.8431    magn:   -0.0088    constr:    0.0000
     atom:    6    charge:    0.8447    magn:   -0.0092    constr:    0.0000
     atom:    7    charge:    0.4984    magn:    0.0002    constr:    0.0000
     atom:    8    charge:    0.4978    magn:    0.0002    constr:    0.0000
     atom:    9    charge:    0.4962    magn:    0.0003    constr:    0.0000
     atom:   10    charge:    0.4966    magn:    0.0004    constr:    0.0000
     atom:   11    charge:    0.4959    magn:    0.0003    constr:    0.0000
     atom:   12    charge:    0.4962    magn:    0.0003    constr:    0.0000
     atom:   13    charge:    5.8228    magn:    1.1059    constr:    0.0000

     total cpu time spent up to now is      172.2 secs

     The total energy is the sum of the following terms:

     one-electron contribution =    -702.77289981 Ry
     hartree contribution      =     350.83211162 Ry
     xc contribution           =     -30.74641411 Ry
     ewald contribution        =     268.46058250 Ry

     total energy              =    -114.22447332 Ry
     Harris-Foulkes estimate   =    -114.22447789 Ry
     estimated scf accuracy    <       0.00000154 Ry

     total magnetization       =     1.00 Bohr mag/cell
     absolute magnetization    =     1.51 Bohr mag/cell

     iteration # 35     ecut=   100.00 Ry     beta=0.70
     CG style diagonalization
     ethr =  4.15E-09,  avg # of iterations =  4.2
 
     Magnetic moment per site:
     atom:    1    charge:    0.8458    magn:   -0.0035    constr:    0.0000
     atom:    2    charge:    0.8438    magn:   -0.0035    constr:    0.0000
     atom:    3    charge:    0.8447    magn:   -0.0093    constr:    0.0000
     atom:    4    charge:    0.8450    magn:   -0.0088    constr:    0.0000
     atom:    5    charge:    0.8431    magn:   -0.0088    constr:    0.0000
     atom:    6    charge:    0.8447    magn:   -0.0093    constr:    0.0000
     atom:    7    charge:    0.4984    magn:    0.0002    constr:    0.0000
     atom:    8    charge:    0.4978    magn:    0.0002    constr:    0.0000
     atom:    9    charge:    0.4962    magn:    0.0003    constr:    0.0000
     atom:   10    charge:    0.4966    magn:    0.0004    constr:    0.0000
     atom:   11    charge:    0.4959    magn:    0.0004    constr:    0.0000
     atom:   12    charge:    0.4962    magn:    0.0003    constr:    0.0000
     atom:   13    charge:    5.8228    magn:    1.1070    constr:    0.0000

     total cpu time spent up to now is      176.8 secs

     The total energy is the sum of the following terms:

     one-electron contribution =    -702.77296441 Ry
     hartree contribution      =     350.83295638 Ry
     xc contribution           =     -30.74637131 Ry
     ewald contribution        =     268.46058250 Ry

     total energy              =    -114.22447852 Ry
     Harris-Foulkes estimate   =    -114.22447980 Ry
     estimated scf accuracy    <       0.00000030 Ry

     total magnetization       =     1.00 Bohr mag/cell
     absolute magnetization    =     1.51 Bohr mag/cell

     iteration # 36     ecut=   100.00 Ry     beta=0.70
     CG style diagonalization
     ethr =  8.23E-10,  avg # of iterations =  4.3
 
     Magnetic moment per site:
     atom:    1    charge:    0.8458    magn:   -0.0035    constr:    0.0000
     atom:    2    charge:    0.8438    magn:   -0.0035    constr:    0.0000
     atom:    3    charge:    0.8447    magn:   -0.0094    constr:    0.0000
     atom:    4    charge:    0.8450    magn:   -0.0088    constr:    0.0000
     atom:    5    charge:    0.8431    magn:   -0.0088    constr:    0.0000
     atom:    6    charge:    0.8447    magn:   -0.0094    constr:    0.0000
     atom:    7    charge:    0.4984    magn:    0.0002    constr:    0.0000
     atom:    8    charge:    0.4978    magn:    0.0002    constr:    0.0000
     atom:    9    charge:    0.4962    magn:    0.0003    constr:    0.0000
     atom:   10    charge:    0.4966    magn:    0.0004    constr:    0.0000
     atom:   11    charge:    0.4959    magn:    0.0004    constr:    0.0000
     atom:   12    charge:    0.4962    magn:    0.0003    constr:    0.0000
     atom:   13    charge:    5.8228    magn:    1.1074    constr:    0.0000

     total cpu time spent up to now is      181.7 secs

     The total energy is the sum of the following terms:

     one-electron contribution =    -702.77158770 Ry
     hartree contribution      =     350.83330382 Ry
     xc contribution           =     -30.74640183 Ry
     ewald contribution        =     268.46058250 Ry

     total energy              =    -114.22447996 Ry
     Harris-Foulkes estimate   =    -114.22448008 Ry
     estimated scf accuracy    <       0.00000006 Ry

     total magnetization       =     1.00 Bohr mag/cell
     absolute magnetization    =     1.51 Bohr mag/cell

     iteration # 37     ecut=   100.00 Ry     beta=0.70
     CG style diagonalization
     ethr =  1.51E-10,  avg # of iterations =  4.5
 
     Magnetic moment per site:
     atom:    1    charge:    0.8458    magn:   -0.0034    constr:    0.0000
     atom:    2    charge:    0.8438    magn:   -0.0034    constr:    0.0000
     atom:    3    charge:    0.8447    magn:   -0.0095    constr:    0.0000
     atom:    4    charge:    0.8450    magn:   -0.0088    constr:    0.0000
     atom:    5    charge:    0.8431    magn:   -0.0088    constr:    0.0000
     atom:    6    charge:    0.8447    magn:   -0.0095    constr:    0.0000
     atom:    7    charge:    0.4984    magn:    0.0002    constr:    0.0000
     atom:    8    charge:    0.4978    magn:    0.0002    constr:    0.0000
     atom:    9    charge:    0.4962    magn:    0.0004    constr:    0.0000
     atom:   10    charge:    0.4966    magn:    0.0004    constr:    0.0000
     atom:   11    charge:    0.4959    magn:    0.0004    constr:    0.0000
     atom:   12    charge:    0.4962    magn:    0.0004    constr:    0.0000
     atom:   13    charge:    5.8228    magn:    1.1076    constr:    0.0000

     total cpu time spent up to now is      186.6 secs

     The total energy is the sum of the following terms:

     one-electron contribution =    -702.77184819 Ry
     hartree contribution      =     350.83342809 Ry
     xc contribution           =     -30.74646112 Ry
     ewald contribution        =     268.46058250 Ry

     total energy              =    -114.22448011 Ry
     Harris-Foulkes estimate   =    -114.22448010 Ry
     estimated scf accuracy    <       0.00000003 Ry

     total magnetization       =     1.00 Bohr mag/cell
     absolute magnetization    =     1.51 Bohr mag/cell

     iteration # 38     ecut=   100.00 Ry     beta=0.70
     CG style diagonalization
     ethr =  7.17E-11,  avg # of iterations =  3.5
 
     Magnetic moment per site:
     atom:    1    charge:    0.8458    magn:   -0.0034    constr:    0.0000
     atom:    2    charge:    0.8438    magn:   -0.0034    constr:    0.0000
     atom:    3    charge:    0.8447    magn:   -0.0095    constr:    0.0000
     atom:    4    charge:    0.8450    magn:   -0.0088    constr:    0.0000
     atom:    5    charge:    0.8431    magn:   -0.0088    constr:    0.0000
     atom:    6    charge:    0.8447    magn:   -0.0095    constr:    0.0000
     atom:    7    charge:    0.4984    magn:    0.0002    constr:    0.0000
     atom:    8    charge:    0.4978    magn:    0.0002    constr:    0.0000
     atom:    9    charge:    0.4962    magn:    0.0004    constr:    0.0000
     atom:   10    charge:    0.4966    magn:    0.0003    constr:    0.0000
     atom:   11    charge:    0.4959    magn:    0.0003    constr:    0.0000
     atom:   12    charge:    0.4962    magn:    0.0004    constr:    0.0000
     atom:   13    charge:    5.8228    magn:    1.1074    constr:    0.0000

     total cpu time spent up to now is      190.8 secs

     The total energy is the sum of the following terms:

     one-electron contribution =    -702.77139181 Ry
     hartree contribution      =     350.83312247 Ry
     xc contribution           =     -30.74644810 Ry
     ewald contribution        =     268.46058250 Ry

     total energy              =    -114.22448003 Ry
     Harris-Foulkes estimate   =    -114.22448012 Ry
     estimated scf accuracy    <       0.00000002 Ry

     total magnetization       =     1.00 Bohr mag/cell
     absolute magnetization    =     1.51 Bohr mag/cell

     iteration # 39     ecut=   100.00 Ry     beta=0.70
     CG style diagonalization
     ethr =  6.17E-11,  avg # of iterations =  3.8
 
     Magnetic moment per site:
     atom:    1    charge:    0.8458    magn:   -0.0034    constr:    0.0000
     atom:    2    charge:    0.8438    magn:   -0.0034    constr:    0.0000
     atom:    3    charge:    0.8447    magn:   -0.0095    constr:    0.0000
     atom:    4    charge:    0.8450    magn:   -0.0088    constr:    0.0000
[...]
 
     Magnetic moment per site:
     atom:    1    charge:    0.8460    magn:   -0.0041    constr:    0.0000
     atom:    2    charge:    0.8441    magn:   -0.0041    constr:    0.0000
     atom:    3    charge:    0.8448    magn:   -0.0105    constr:    0.0000
     atom:    4    charge:    0.8452    magn:   -0.0099    constr:    0.0000
     atom:    5    charge:    0.8432    magn:   -0.0099    constr:    0.0000
     atom:    6    charge:    0.8448    magn:   -0.0105    constr:    0.0000
     atom:    7    charge:    0.4985    magn:    0.0002    constr:    0.0000
     atom:    8    charge:    0.4979    magn:    0.0002    constr:    0.0000
     atom:    9    charge:    0.4963    magn:    0.0004    constr:    0.0000
     atom:   10    charge:    0.4966    magn:    0.0004    constr:    0.0000
     atom:   11    charge:    0.4960    magn:    0.0004    constr:    0.0000
     atom:   12    charge:    0.4963    magn:    0.0004    constr:    0.0000
     atom:   13    charge:    5.8049    magn:    1.1374    constr:    0.0000

     total cpu time spent up to now is      507.7 secs

     The total energy is the sum of the following terms:

     one-electron contribution =    -703.03149240 Ry
     hartree contribution      =     350.86974947 Ry
     xc contribution           =     -30.74371744 Ry
     ewald contribution        =     268.46058250 Ry

     total energy              =    -114.44791631 Ry
     Harris-Foulkes estimate   =    -114.44791634 Ry
     estimated scf accuracy    <       0.00000024 Ry

     total magnetization       =     1.00 Bohr mag/cell
     absolute magnetization    =     1.58 Bohr mag/cell

     iteration #  5     ecut=   100.00 Ry     beta=0.70
     CG style diagonalization
     ethr =  3.24E-10,  avg # of iterations =  3.0
 
     Magnetic moment per site:
     atom:    1    charge:    0.8460    magn:   -0.0041    constr:    0.0000
     atom:    2    charge:    0.8441    magn:   -0.0041    constr:    0.0000
     atom:    3    charge:    0.8448    magn:   -0.0105    constr:    0.0000
     atom:    4    charge:    0.8452    magn:   -0.0099    constr:    0.0000
     atom:    5    charge:    0.8432    magn:   -0.0099    constr:    0.0000
     atom:    6    charge:    0.8448    magn:   -0.0105    constr:    0.0000
     atom:    7    charge:    0.4985    magn:    0.0002    constr:    0.0000
     atom:    8    charge:    0.4979    magn:    0.0002    constr:    0.0000
     atom:    9    charge:    0.4963    magn:    0.0004    constr:    0.0000
     atom:   10    charge:    0.4966    magn:    0.0004    constr:    0.0000
     atom:   11    charge:    0.4960    magn:    0.0004    constr:    0.0000
     atom:   12    charge:    0.4963    magn:    0.0004    constr:    0.0000
     atom:   13    charge:    5.8049    magn:    1.1373    constr:    0.0000

     total cpu time spent up to now is      511.5 secs

     The total energy is the sum of the following terms:

     one-electron contribution =    -703.03309729 Ry
     hartree contribution      =     350.86959842 Ry
     xc contribution           =     -30.74370581 Ry
     ewald contribution        =     268.46058250 Ry

     total energy              =    -114.44791631 Ry
     Harris-Foulkes estimate   =    -114.44791632 Ry
     estimated scf accuracy    <       0.00000006 Ry

     total magnetization       =     1.00 Bohr mag/cell
     absolute magnetization    =     1.58 Bohr mag/cell

     iteration #  6     ecut=   100.00 Ry     beta=0.70
     CG style diagonalization
     ethr =  1.62E-10,  avg # of iterations =  3.0
 
     Magnetic moment per site:
     atom:    1    charge:    0.8460    magn:   -0.0041    constr:    0.0000
     atom:    2    charge:    0.8440    magn:   -0.0041    constr:    0.0000
     atom:    3    charge:    0.8448    magn:   -0.0105    constr:    0.0000
     atom:    4    charge:    0.8451    magn:   -0.0099    constr:    0.0000
     atom:    5    charge:    0.8432    magn:   -0.0099    constr:    0.0000
     atom:    6    charge:    0.8448    magn:   -0.0105    constr:    0.0000
     atom:    7    charge:    0.4985    magn:    0.0002    constr:    0.0000
     atom:    8    charge:    0.4979    magn:    0.0002    constr:    0.0000
     atom:    9    charge:    0.4963    magn:    0.0004    constr:    0.0000
     atom:   10    charge:    0.4966    magn:    0.0004    constr:    0.0000
     atom:   11    charge:    0.4960    magn:    0.0004    constr:    0.0000
     atom:   12    charge:    0.4963    magn:    0.0004    constr:    0.0000
     atom:   13    charge:    5.8050    magn:    1.1372    constr:    0.0000

     total cpu time spent up to now is      515.2 secs

     End of self-consistent calculation

 ------ SPIN UP ------------


          k = 0.0000 0.0000 0.0000 (280170 PWs)   bands (ev):

   -25.3111 -22.5724 -22.5251 -19.5550 -18.9967 -18.9898 -17.1622 -15.4931
   -15.0423 -14.5075 -14.4715 -13.2168 -12.4917 -12.4908 -10.5400 -10.4830
    -8.0409  -6.7233  -6.7064  -5.3988  -5.3599  -4.6376  -3.9575  -3.9517
    -3.3022  -3.2928  -3.0407  -2.3279  -2.2335  -2.0637  -2.0484  -1.7742
    -1.7169  -0.7590  -0.7178  -0.6427  -0.6318  -0.3562  -0.3090  -0.1770

     occupation numbers 
     1.0000   1.0000   1.0000   1.0000   1.0000   1.0000   1.0000   1.0000
     1.0000   1.0000   1.0000   1.0000   1.0000   1.0000   1.0000   1.0000
     1.0000   1.0000   1.0000   0.0000   0.0000   0.0000   0.0000   0.0000
     0.0000   0.0000   0.0000   0.0000   0.0000   0.0000   0.0000   0.0000
     0.0000   0.0000   0.0000   0.0000   0.0000   0.0000   0.0000   0.0000

 ------ SPIN DOWN ----------


          k = 0.0000 0.0000 0.0000 (280170 PWs)   bands (ev):

   -25.3529 -22.6163 -22.5812 -19.0387 -19.0376 -17.9914 -17.1778 -15.5295
   -15.0616 -14.5180 -14.4856 -13.3242 -12.5074 -12.5048 -10.6543 -10.6321
    -6.1145  -6.0912  -5.4673  -5.4652  -5.3155  -4.6551  -3.9806  -3.9656
    -3.3281  -3.3171  -3.0713  -2.3306  -2.2604  -2.1042  -2.0845  -1.8628
    -1.8047  -0.7925  -0.7554  -0.6635  -0.6541  -0.4035  -0.3214  -0.1950

     occupation numbers 
     1.0000   1.0000   1.0000   1.0000   1.0000   1.0000   1.0000   1.0000
     1.0000   1.0000   1.0000   1.0000   1.0000   1.0000   1.0000   1.0000
     1.0000   1.0000   0.0000   0.0000   0.0000   0.0000   0.0000   0.0000
     0.0000   0.0000   0.0000   0.0000   0.0000   0.0000   0.0000   0.0000
     0.0000   0.0000   0.0000   0.0000   0.0000   0.0000   0.0000   0.0000

     highest occupied, lowest unoccupied level (ev):    -6.0912   -5.4673

     The total energy is the sum of the following terms:

     one-electron contribution =    -703.03403129 Ry
     hartree contribution      =     350.86923094 Ry
     xc contribution           =     -30.74369847 Ry
     ewald contribution        =     268.46058250 Ry

!    total energy              =    -114.44791632 Ry
     Harris-Foulkes estimate   =    -114.44791632 Ry
     estimated scf accuracy    <          3.3E-09 Ry

     The total energy is the sum of the following terms:

     one-electron contribution =    -703.03403129 Ry
     hartree contribution      =     350.86923094 Ry
     xc contribution           =     -30.74369847 Ry
     ewald contribution        =     268.46058250 Ry

     total magnetization       =     1.00 Bohr mag/cell
     absolute magnetization    =     1.58 Bohr mag/cell

     convergence has been achieved in   6 iterations
 
     Using Hirshfeld
        Amplitude [Ry a.u.] : -3.8911E-01
        Acceptor Fragment start :          13
        Acceptor Fragment end   :          13
        Donor Fragment start :           1
        Donor Fragment end   :          12
 
 
     Using Hirshfeld
        Amplitude [Ry a.u.] : -3.8911E-01
        Acceptor Fragment start :          13
        Acceptor Fragment end   :          13
        Donor Fragment start :           1
        Donor Fragment end   :          12
 
     E field correction              :  0.9338592557058302E+01 Ry    
 
     Donor charge                    :     -0.3485940739204665 e     
     Acceptor charge                 :      0.6512972884994630 e     
     Difference of charges           :     -0.9998913624199304 e     
 
     epcdft_thr                      :  0.1000000000000000E-03 e     
     Surplus(+)/deficit(-) charge    :  0.1086375800696260E-03 e     
 
     -----------------------------------------------
 
                      SCF converged but...
 
     electron localization condition NOT satisfied
     restarting scf with different applied potential
 
     New field Amp                   : -0.3891266949689898E+00 Ry    
     charge density from previous step
 
     Using Hirshfeld
        Amplitude [Ry a.u.] : -3.8913E-01
        Acceptor Fragment start :          13
        Acceptor Fragment end   :          13
        Donor Fragment start :           1
        Donor Fragment end   :          12
 

     total cpu time spent up to now is      526.3 secs

     per-process dynamical memory:    62.2 Mb

     Self-consistent Calculation

     iteration #  1     ecut=   100.00 Ry     beta=0.70
     CG style diagonalization
     ethr =  1.62E-10,  avg # of iterations =  3.5
 
     Magnetic moment per site:
     atom:    1    charge:    0.8460    magn:   -0.0041    constr:    0.0000
     atom:    2    charge:    0.8441    magn:   -0.0041    constr:    0.0000
     atom:    3    charge:    0.8449    magn:   -0.0105    constr:    0.0000
     atom:    4    charge:    0.8452    magn:   -0.0099    constr:    0.0000
     atom:    5    charge:    0.8432    magn:   -0.0099    constr:    0.0000
     atom:    6    charge:    0.8449    magn:   -0.0105    constr:    0.0000
     atom:    7    charge:    0.4985    magn:    0.0002    constr:    0.0000
     atom:    8    charge:    0.4979    magn:    0.0002    constr:    0.0000
     atom:    9    charge:    0.4963    magn:    0.0004    constr:    0.0000
     atom:   10    charge:    0.4966    magn:    0.0004    constr:    0.0000
     atom:   11    charge:    0.4960    magn:    0.0004    constr:    0.0000
     atom:   12    charge:    0.4963    magn:    0.0004    constr:    0.0000
     atom:   13    charge:    5.8042    magn:    1.1377    constr:    0.0000

     total cpu time spent up to now is      531.3 secs

     The total energy is the sum of the following terms:

     one-electron contribution =    -703.03860283 Ry
     hartree contribution      =     350.87209947 Ry
     xc contribution           =     -30.74365070 Ry
     ewald contribution        =     268.46058250 Ry

     total energy              =    -114.44832159 Ry
     Harris-Foulkes estimate   =    -114.44832222 Ry
     estimated scf accuracy    <       0.00000079 Ry

     total magnetization       =     1.00 Bohr mag/cell
     absolute magnetization    =     1.58 Bohr mag/cell

     iteration #  2     ecut=   100.00 Ry     beta=0.70
     CG style diagonalization
     ethr =  2.12E-09,  avg # of iterations =  4.1
 
     Magnetic moment per site:
     atom:    1    charge:    0.8460    magn:   -0.0041    constr:    0.0000
     atom:    2    charge:    0.8441    magn:   -0.0041    constr:    0.0000
     atom:    3    charge:    0.8448    magn:   -0.0105    constr:    0.0000
     atom:    4    charge:    0.8452    magn:   -0.0099    constr:    0.0000
     atom:    5    charge:    0.8432    magn:   -0.0099    constr:    0.0000
     atom:    6    charge:    0.8448    magn:   -0.0105    constr:    0.0000
     atom:    7    charge:    0.4985    magn:    0.0002    constr:    0.0000
     atom:    8    charge:    0.4979    magn:    0.0002    constr:    0.0000
     atom:    9    charge:    0.4963    magn:    0.0004    constr:    0.0000
     atom:   10    charge:    0.4966    magn:    0.0004    constr:    0.0000
     atom:   11    charge:    0.4960    magn:    0.0004    constr:    0.0000
     atom:   12    charge:    0.4963    magn:    0.0004    constr:    0.0000
     atom:   13    charge:    5.8049    magn:    1.1372    constr:    0.0000

     total cpu time spent up to now is      535.9 secs

     The total energy is the sum of the following terms:

     one-electron contribution =    -703.00759389 Ry
     hartree contribution      =     350.86976374 Ry
     xc contribution           =     -30.74371197 Ry
     ewald contribution        =     268.46058250 Ry

     total energy              =    -114.44831914 Ry
     Harris-Foulkes estimate   =    -114.44832554 Ry
     estimated scf accuracy    <       0.00004642 Ry

     total magnetization       =     1.00 Bohr mag/cell
     absolute magnetization    =     1.56 Bohr mag/cell

     iteration #  3     ecut=   100.00 Ry     beta=0.70
     CG style diagonalization
     ethr =  2.12E-09,  avg # of iterations =  4.0
 
     Magnetic moment per site:
     atom:    1    charge:    0.8460    magn:   -0.0041    constr:    0.0000
     atom:    2    charge:    0.8440    magn:   -0.0041    constr:    0.0000
     atom:    3    charge:    0.8448    magn:   -0.0105    constr:    0.0000
     atom:    4    charge:    0.8451    magn:   -0.0099    constr:    0.0000
     atom:    5    charge:    0.8432    magn:   -0.0099    constr:    0.0000
     atom:    6    charge:    0.8448    magn:   -0.0105    constr:    0.0000
     atom:    7    charge:    0.4986    magn:    0.0002    constr:    0.0000
     atom:    8    charge:    0.4979    magn:    0.0002    constr:    0.0000
     atom:    9    charge:    0.4963    magn:    0.0004    constr:    0.0000
     atom:   10    charge:    0.4966    magn:    0.0004    constr:    0.0000
     atom:   11    charge:    0.4960    magn:    0.0004    constr:    0.0000
     atom:   12    charge:    0.4963    magn:    0.0004    constr:    0.0000
     atom:   13    charge:    5.8050    magn:    1.1372    constr:    0.0000

     total cpu time spent up to now is      540.4 secs

     End of self-consistent calculation

 ------ SPIN UP ------------


          k = 0.0000 0.0000 0.0000 (280170 PWs)   bands (ev):

   -25.3112 -22.5725 -22.5252 -19.5550 -18.9968 -18.9899 -17.1623 -15.4933
   -15.0424 -14.5076 -14.4716 -13.2169 -12.4918 -12.4909 -10.5401 -10.4831
    -8.0409  -6.7233  -6.7064  -5.3989  -5.3600  -4.6378  -3.9576  -3.9519
    -3.3023  -3.2930  -3.0408  -2.3281  -2.2337  -2.0639  -2.0486  -1.7743
    -1.7170  -0.7591  -0.7179  -0.6429  -0.6320  -0.3563  -0.3091  -0.1771

     occupation numbers 
     1.0000   1.0000   1.0000   1.0000   1.0000   1.0000   1.0000   1.0000
     1.0000   1.0000   1.0000   1.0000   1.0000   1.0000   1.0000   1.0000
     1.0000   1.0000   1.0000   0.0000   0.0000   0.0000   0.0000   0.0000
     0.0000   0.0000   0.0000   0.0000   0.0000   0.0000   0.0000   0.0000
     0.0000   0.0000   0.0000   0.0000   0.0000   0.0000   0.0000   0.0000

 ------ SPIN DOWN ----------


          k = 0.0000 0.0000 0.0000 (280170 PWs)   bands (ev):

   -25.3530 -22.6164 -22.5813 -19.0388 -19.0377 -17.9915 -17.1779 -15.5297
   -15.0617 -14.5181 -14.4857 -13.3243 -12.5075 -12.5049 -10.6544 -10.6322
    -6.1146  -6.0912  -5.4674  -5.4653  -5.3155  -4.6553  -3.9808  -3.9658
    -3.3283  -3.3173  -3.0714  -2.3307  -2.2606  -2.1043  -2.0847  -1.8629
    -1.8049  -0.7927  -0.7555  -0.6637  -0.6543  -0.4037  -0.3215  -0.1951

     occupation numbers 
     1.0000   1.0000   1.0000   1.0000   1.0000   1.0000   1.0000   1.0000
     1.0000   1.0000   1.0000   1.0000   1.0000   1.0000   1.0000   1.0000
     1.0000   1.0000   0.0000   0.0000   0.0000   0.0000   0.0000   0.0000
     0.0000   0.0000   0.0000   0.0000   0.0000   0.0000   0.0000   0.0000
     0.0000   0.0000   0.0000   0.0000   0.0000   0.0000   0.0000   0.0000

     highest occupied, lowest unoccupied level (ev):    -6.0912   -5.4674

     The total energy is the sum of the following terms:

     one-electron contribution =    -703.03400173 Ry
     hartree contribution      =     350.86874366 Ry
     xc contribution           =     -30.74364659 Ry
     ewald contribution        =     268.46058250 Ry

!    total energy              =    -114.44832216 Ry
     Harris-Foulkes estimate   =    -114.44832217 Ry
     estimated scf accuracy    <          6.1E-09 Ry

     The total energy is the sum of the following terms:

     one-electron contribution =    -703.03400173 Ry
     hartree contribution      =     350.86874366 Ry
     xc contribution           =     -30.74364659 Ry
     ewald contribution        =     268.46058250 Ry

     total magnetization       =     1.00 Bohr mag/cell
     absolute magnetization    =     1.58 Bohr mag/cell

     convergence has been achieved in   3 iterations
 
     Using Hirshfeld
        Amplitude [Ry a.u.] : -3.8913E-01
        Acceptor Fragment start :          13
        Acceptor Fragment end   :          13
        Donor Fragment start :           1
        Donor Fragment end   :          12
 
 
     Using Hirshfeld
        Amplitude [Ry a.u.] : -3.8913E-01
        Acceptor Fragment start :          13
        Acceptor Fragment end   :          13
        Donor Fragment start :           1
        Donor Fragment end   :          12
 
     E field correction              :  0.9339027385110152E+01 Ry    
 
     Donor charge                    :     -0.3486324873889579 e     
     Acceptor charge                 :      0.6513333485565349 e     
     Difference of charges           :     -0.9999658359454884 e     

     Writing output data file right.save
 
     init_run     :     19.37s CPU     19.37s WALL (       1 calls)
     electrons    :    475.19s CPU    475.19s WALL (       8 calls)
     update_pot   :      4.87s CPU      4.87s WALL (       7 calls)

     Called by init_run:
     wfcinit      :      3.92s CPU      3.92s WALL (       1 calls)
     potinit      :      1.22s CPU      1.22s WALL (       1 calls)

     Called by electrons:
     c_bands      :    288.00s CPU    288.00s WALL (      87 calls)
     sum_band     :     26.60s CPU     26.60s WALL (      87 calls)
     v_of_rho     :     63.32s CPU     63.32s WALL (      95 calls)
     v_h          :      0.79s CPU      0.79s WALL (      95 calls)
     v_xc         :     62.53s CPU     62.53s WALL (      95 calls)
     mix_rho      :      1.87s CPU      1.87s WALL (      87 calls)

     Called by c_bands:
     init_us_2    :      0.75s CPU      0.75s WALL (     350 calls)
     rcgdiagg     :    230.15s CPU    230.15s WALL (     177 calls)
     wfcrot       :     51.30s CPU     51.30s WALL (     163 calls)

     Called by sum_band:

     Called by *cgdiagg:
     h_psi        :    239.84s CPU    239.84s WALL (   23365 calls)
     rdiaghg      :     11.55s CPU     11.55s WALL (     163 calls)
     rdiaghg:chol :      0.90s CPU      0.90s WALL (     163 calls)
     rdiaghg:inve :      0.15s CPU      0.15s WALL (     163 calls)
     rdiaghg:para :      0.87s CPU      0.87s WALL (     326 calls)

     Called by h_psi:
     h_psi:vloc   :    215.28s CPU    215.29s WALL (   23365 calls)
     h_psi:vnl    :     24.22s CPU     24.21s WALL (   23365 calls)
     add_vuspsi   :     16.03s CPU     16.05s WALL (   23365 calls)

     General routines
     calbec       :     12.09s CPU     12.13s WALL (   46567 calls)
     fft          :     43.35s CPU     43.35s WALL (    6957 calls)
     fftw         :    209.77s CPU    209.80s WALL (   56740 calls)
 
     Parallel routines
     fft_scatter  :    111.62s CPU    111.62s WALL (   63697 calls)
 
     PWSCF        :  9m42.06s CPU     9m42.06s WALL

 
   This run was terminated on:  19:16:59  22Aug2015            

=------------------------------------------------------------------------------=
   JOB DONE.
=------------------------------------------------------------------------------=
2015-08-22 19:17:17.134 (INFO ) [0xfff8fd3c410] CET-62000-73331-128:1295515:ibm.runjob.client.Job: exited with status 0
2015-08-22 19:17:17.135 (INFO ) [0xfff8fd3c410] tatu.runjob.client: task exited with status 0
2015-08-22 19:17:17.135 (INFO ) [0xfffb15234e0] 20135:tatu.runjob.monitor: monitor terminating
2015-08-22 19:17:17.139 (INFO ) [0xfff8fd3c410] tatu.runjob.client: monitor completed
