2015-08-22 19:16:54.212 (INFO ) [0xfff7e41c410] ibm.runjob.AbstractOptions: using properties file /bgsys/local/etc/bg.properties
2015-08-22 19:16:54.219 (INFO ) [0xfff7e41c410] ibm.runjob.AbstractOptions: max open file descriptors: 65536
2015-08-22 19:16:54.220 (INFO ) [0xfff7e41c410] ibm.runjob.AbstractOptions: core file limit: 18446744073709551615
2015-08-22 19:16:54.221 (INFO ) [0xfff7e41c410] 40943:tatu.runjob.client: scheduler job id is 567062
2015-08-22 19:16:54.226 (INFO ) [0xfff801634e0] 40943:tatu.runjob.monitor: monitor started
2015-08-22 19:16:58.274 (INFO ) [0xfff801634e0] 40943:tatu.runjob.monitor: task record 1236753 created
2015-08-22 19:16:58.275 (INFO ) [0xfff7e41c410] CET-20440-31771-128:40943:ibm.runjob.client.options.Parser: set local socket to runjob_mux from properties file
2015-08-22 19:17:01.284 (INFO ) [0xfff7e41c410] CET-20440-31771-128:1295527:ibm.runjob.client.Job: job 1295527 started

     Program PWSCF v.5.1.1 starts on 22Aug2015 at 19:17: 1 

     This program is part of the open-source Quantum ESPRESSO suite
     for quantum simulation of materials; please cite
         "P. Giannozzi et al., J. Phys.:Condens. Matter 21 395502 (2009);
          URL http://www.quantum-espresso.org", 
     in publications or presentations arising from this work. More details at
     http://www.quantum-espresso.org/quote

     Parallel version (MPI & OpenMP), running on    1024 processor cores
     Number of MPI processes:              1024
     Threads/MPI process:                     1
     R & G space division:  proc/nbgrp/npool/nimage =    1024
     Waiting for input...
     Reading input from standard input

     Current dimensions of program PWSCF are:
     Max number of different atomic species (ntypx) = 10
     Max number of k-points (npk) =  40000
     Max angular momentum in pseudopotentials (lmaxx) =  3
               file C.pbe-mt_fhi.UPF: wavefunction(s)  4f renormalized
               file H.pbe-mt_fhi.UPF: wavefunction(s)  2p 4f renormalized
               file Cl.pbe-mt_fhi.UPF: wavefunction(s)  4f renormalized

     gamma-point specific algorithms are used
     Message from routine setup:
     the system is metallic, specify occupations

     Subspace diagonalization in iterative solution of the eigenvalue problem:
     scalapack distributed-memory algorithm (size of sub-group: 22* 22 procs)

 
     Parallelization info
     --------------------
     sticks:   dense  smooth     PW     G-vecs:    dense   smooth      PW
     Min          28      28      6                 3712     3712     442
     Max          30      30      8                 3762     3762     492
     Sum       29541   29541   7393              3823391  3823391  477921
     Tot       14771   14771   3697
 
     Generating pointlists ...
     new r_m :   0.0263 (alat units)  0.8450 (a.u.) for type    1
     new r_m :   0.0263 (alat units)  0.8450 (a.u.) for type    2
     new r_m :   0.0747 (alat units)  2.4011 (a.u.) for type    3
2015-08-22 19:17:07.645 (INFO ) [0xfff801634e0] 40943:tatu.runjob.monitor: tracklib completed


     bravais-lattice index     =            1
     lattice parameter (alat)  =      32.1253  a.u.
     unit-cell volume          =   33154.5678 (a.u.)^3
     number of atoms/cell      =           13
     number of atomic types    =            3
     number of electrons       =        37.00 (up:  19.00, down:  18.00)
     number of Kohn-Sham states=           40
     kinetic-energy cutoff     =      90.0000  Ry
     charge density cutoff     =     360.0000  Ry
     convergence threshold     =      1.0E-10
     mixing beta               =       0.7000
     number of iterations used =            8  plain     mixing
     Exchange-correlation      = PBE ( 1  4  3  4 0 0)
     Assuming isolated system, Martyna-Tuckerman method


     celldm(1)=  32.125344  celldm(2)=   0.000000  celldm(3)=   0.000000
     celldm(4)=   0.000000  celldm(5)=   0.000000  celldm(6)=   0.000000

     crystal axes: (cart. coord. in units of alat)
               a(1) = (   1.000000   0.000000   0.000000 )  
               a(2) = (   0.000000   1.000000   0.000000 )  
               a(3) = (   0.000000   0.000000   1.000000 )  

     reciprocal axes: (cart. coord. in units 2 pi/alat)
               b(1) = (  1.000000  0.000000  0.000000 )  
               b(2) = (  0.000000  1.000000  0.000000 )  
               b(3) = (  0.000000  0.000000  1.000000 )  


     PseudoPot. # 1 for  C read from file:
     ./C.pbe-mt_fhi.UPF
     MD5 check sum: 058ca341f9d6d5327d9962fd88a91b65
     Pseudo is Norm-conserving, Zval =  4.0
     Generated using FHI98PP, converted with fhi2upf.x v.5.0.2
     Using radial grid of  461 points,  3 beta functions with: 
                l(1) =   0
                l(2) =   1
                l(3) =   3

     PseudoPot. # 2 for  H read from file:
     ./H.pbe-mt_fhi.UPF
     MD5 check sum: a19bd5488733b3d98581df861506e80d
     Pseudo is Norm-conserving, Zval =  1.0
     Generated using FHI98PP, converted with fhi2upf.x v.5.0.2
     Using radial grid of  387 points,  3 beta functions with: 
                l(1) =   0
                l(2) =   1
                l(3) =   3

     PseudoPot. # 3 for Cl read from file:
     ./Cl.pbe-mt_fhi.UPF
     MD5 check sum: 2690b95bbfe21454a1a3af22474751ef
     Pseudo is Norm-conserving, Zval =  7.0
     Generated using FHI98PP, converted with fhi2upf.x v.5.0.2
     Using radial grid of  503 points,  3 beta functions with: 
                l(1) =   0
                l(2) =   1
                l(3) =   3

     atomic species   valence    mass     pseudopotential
        C              4.00    12.01070      C( 1.00)
        H              1.00     1.00794      H( 1.00)
        Cl             7.00     1.00000     Cl( 1.00)

     Starting magnetic structure 
     atomic species   magnetization
        C            0.000
        H            0.000
        Cl           0.000

     No symmetry found


                                    s                        frac. trans.

      isym =  1     identity                                     

 cryst.   s( 1) = (     1          0          0      )
                  (     0          1          0      )
                  (     0          0          1      )

 cart.    s( 1) = (  1.0000000  0.0000000  0.0000000 )
                  (  0.0000000  1.0000000  0.0000000 )
                  (  0.0000000  0.0000000  1.0000000 )


     point group C_1 (1)    
     there are  1 classes
     the character table:

       E    
A      1.00

     the symmetry operations in each class:
     E        1

   Cartesian axes

     site n.     atom                  positions (alat units)
         1           C   tau(   1) = (   0.0000000   0.0821765   0.0000000  )
         2           C   tau(   2) = (   0.0711647   0.0410882   0.0000000  )
         3           C   tau(   3) = (   0.0711647  -0.0410882   0.0000000  )
         4           C   tau(   4) = (   0.0000000  -0.0821765   0.0000000  )
         5           C   tau(   5) = (  -0.0711647  -0.0410882   0.0000000  )
         6           C   tau(   6) = (  -0.0711647   0.0410882   0.0000000  )
         7           H   tau(   7) = (   0.0000000   0.1459412   0.0000000  )
         8           H   tau(   8) = (   0.1263882   0.0729706   0.0000000  )
         9           H   tau(   9) = (   0.1263882  -0.0729706   0.0000000  )
        10           H   tau(  10) = (   0.0000000  -0.1459412   0.0000000  )
        11           H   tau(  11) = (  -0.1263882  -0.0729706   0.0000000  )
        12           H   tau(  12) = (  -0.1263882   0.0729706   0.0000000  )
        13           Cl  tau(  13) = (   0.0355824   0.0616324   0.1764706  )

   Crystallographic axes

     site n.     atom                  positions (cryst. coord.)
         1           C   tau(   1) = (  0.0000000  0.0821765  0.0000000  )
         2           C   tau(   2) = (  0.0711647  0.0410882  0.0000000  )
         3           C   tau(   3) = (  0.0711647 -0.0410882  0.0000000  )
         4           C   tau(   4) = (  0.0000000 -0.0821765  0.0000000  )
         5           C   tau(   5) = ( -0.0711647 -0.0410882  0.0000000  )
         6           C   tau(   6) = ( -0.0711647  0.0410882  0.0000000  )
         7           H   tau(   7) = (  0.0000000  0.1459412  0.0000000  )
         8           H   tau(   8) = (  0.1263882  0.0729706  0.0000000  )
         9           H   tau(   9) = (  0.1263882 -0.0729706  0.0000000  )
        10           H   tau(  10) = (  0.0000000 -0.1459412  0.0000000  )
        11           H   tau(  11) = ( -0.1263882 -0.0729706  0.0000000  )
        12           H   tau(  12) = ( -0.1263882  0.0729706  0.0000000  )
        13           Cl  tau(  13) = (  0.0355824  0.0616324  0.1764706  )

     number of k points=     2
                       cart. coord. in units 2pi/alat
        k(    1) = (   0.0000000   0.0000000   0.0000000), wk =   1.0000000
        k(    2) = (   0.0000000   0.0000000   0.0000000), wk =   1.0000000

                       cryst. coord.
        k(    1) = (   0.0000000   0.0000000   0.0000000), wk =   1.0000000
        k(    2) = (   0.0000000   0.0000000   0.0000000), wk =   1.0000000

     Dense  grid:  1911696 G-vectors     FFT dimensions: ( 198, 198, 198)

     Largest allocated arrays     est. size (Mb)     dimensions
        Kohn-Sham Wavefunctions         0.14 Mb     (     225,   40)
        NL pseudopotentials             0.49 Mb     (     225,  143)
        Each V/rho on FFT grid          1.20 Mb     (   39204,   2)
        Each G-vector array             0.01 Mb     (    1858)
        G-vector shells                 0.01 Mb     (     833)
     Largest temporary arrays     est. size (Mb)     dimensions
        Each subspace H/S matrix        0.00 Mb     (       1,    1)
        Each <psi_i|beta_j> matrix      0.04 Mb     (     143,   40)
        Arrays for rho mixing           4.79 Mb     (   39204,    8)
 
     Using Hirshfeld
        Amplitude [Ry a.u.] : -3.8779E-01
        Acceptor Fragment start :          13
        Acceptor Fragment end   :          13
        Donor Fragment start :           1
        Donor Fragment end   :          12
 

     Initial potential from superposition of free atoms
     Check: negative starting charge=(component1):   -0.000758
     Check: negative starting charge=(component2):   -0.000758

     starting charge   36.99968, renormalised to   37.00000

     negative rho (up, down):  7.580E-04 7.580E-04
     Starting wfc are  208 randomized atomic wfcs

     total cpu time spent up to now is       19.7 secs

     per-process dynamical memory:    53.5 Mb

     Self-consistent Calculation

     iteration #  1     ecut=    90.00 Ry     beta=0.70
     CG style diagonalization
     ethr =  1.00E-02,  avg # of iterations =  3.6

     negative rho (up, down):  1.258E-04 1.482E-04
 
     Magnetic moment per site:
     atom:    1    charge:    1.0250    magn:    0.0307    constr:    0.0000
     atom:    2    charge:    1.0255    magn:    0.0307    constr:    0.0000
     atom:    3    charge:    1.0238    magn:    0.0294    constr:    0.0000
     atom:    4    charge:    1.0234    magn:    0.0288    constr:    0.0000
     atom:    5    charge:    1.0234    magn:    0.0289    constr:    0.0000
     atom:    6    charge:    1.0243    magn:    0.0296    constr:    0.0000
     atom:    7    charge:    0.4452    magn:    0.0013    constr:    0.0000
     atom:    8    charge:    0.4447    magn:    0.0011    constr:    0.0000
     atom:    9    charge:    0.4443    magn:    0.0013    constr:    0.0000
     atom:   10    charge:    0.4448    magn:    0.0013    constr:    0.0000
     atom:   11    charge:    0.4441    magn:    0.0013    constr:    0.0000
     atom:   12    charge:    0.4441    magn:    0.0012    constr:    0.0000
     atom:   13    charge:    3.1677    magn:    0.0006    constr:    0.0000

     total cpu time spent up to now is       26.6 secs

     The total energy is the sum of the following terms:

     one-electron contribution =    -729.38710387 Ry
     hartree contribution      =     372.52921439 Ry
     xc contribution           =     -31.50462443 Ry
     ewald contribution        =     268.46058250 Ry

     total energy              =    -103.19926383 Ry
     Harris-Foulkes estimate   =    -117.32329794 Ry
     estimated scf accuracy    <      16.73877075 Ry

     total magnetization       =     1.00 Bohr mag/cell
     absolute magnetization    =     1.00 Bohr mag/cell

     iteration #  2     ecut=    90.00 Ry     beta=0.70
     CG style diagonalization
     ethr =  1.00E-02,  avg # of iterations =  9.6

     negative rho (up, down):  5.161E-05 7.265E-05
 
     Magnetic moment per site:
     atom:    1    charge:    0.8990    magn:    0.0307    constr:    0.0000
     atom:    2    charge:    0.8994    magn:    0.0308    constr:    0.0000
     atom:    3    charge:    0.8927    magn:    0.0264    constr:    0.0000
     atom:    4    charge:    0.8905    magn:    0.0250    constr:    0.0000
     atom:    5    charge:    0.8904    magn:    0.0251    constr:    0.0000
     atom:    6    charge:    0.8931    magn:    0.0265    constr:    0.0000
     atom:    7    charge:    0.4430    magn:    0.0060    constr:    0.0000
     atom:    8    charge:    0.4426    magn:    0.0057    constr:    0.0000
     atom:    9    charge:    0.4325    magn:    0.0030    constr:    0.0000
     atom:   10    charge:    0.4319    magn:    0.0019    constr:    0.0000
     atom:   11    charge:    0.4310    magn:    0.0021    constr:    0.0000
     atom:   12    charge:    0.4326    magn:    0.0028    constr:    0.0000
     atom:   13    charge:    5.4095    magn:    0.0056    constr:    0.0000

     total cpu time spent up to now is       34.4 secs

     The total energy is the sum of the following terms:

     one-electron contribution =    -566.64948101 Ry
     hartree contribution      =     347.54229350 Ry
     xc contribution           =     -30.26487985 Ry
     ewald contribution        =     268.46058250 Ry

     total energy              =     -85.68761865 Ry
     Harris-Foulkes estimate   =    -140.70211934 Ry
     estimated scf accuracy    <     203.77971646 Ry

     total magnetization       =     1.00 Bohr mag/cell
     absolute magnetization    =     1.13 Bohr mag/cell

     iteration #  3     ecut=    90.00 Ry     beta=0.70
     CG style diagonalization
     ethr =  1.00E-02,  avg # of iterations =  9.0

     negative rho (up, down):  1.704E-05 2.113E-05
 
     Magnetic moment per site:
     atom:    1    charge:    0.8802    magn:    0.0264    constr:    0.0000
     atom:    2    charge:    0.8807    magn:    0.0275    constr:    0.0000
     atom:    3    charge:    0.8785    magn:    0.0181    constr:    0.0000
     atom:    4    charge:    0.8724    magn:    0.0200    constr:    0.0000
     atom:    5    charge:    0.8730    magn:    0.0208    constr:    0.0000
     atom:    6    charge:    0.8798    magn:    0.0191    constr:    0.0000
     atom:    7    charge:    0.4635    magn:    0.0039    constr:    0.0000
     atom:    8    charge:    0.4631    magn:    0.0036    constr:    0.0000
     atom:    9    charge:    0.4595    magn:    0.0011    constr:    0.0000
     atom:   10    charge:    0.4626    magn:    0.0006    constr:    0.0000
     atom:   11    charge:    0.4614    magn:    0.0005    constr:    0.0000
     atom:   12    charge:    0.4595    magn:    0.0011    constr:    0.0000
     atom:   13    charge:    5.6419    magn:    0.2473    constr:    0.0000

     total cpu time spent up to now is       41.9 secs

     The total energy is the sum of the following terms:

     one-electron contribution =    -702.29606292 Ry
     hartree contribution      =     349.77883757 Ry
     xc contribution           =     -30.53385759 Ry
     ewald contribution        =     268.46058250 Ry

     total energy              =    -114.28852416 Ry
     Harris-Foulkes estimate   =    -114.44585606 Ry
     estimated scf accuracy    <       0.64144248 Ry

     total magnetization       =     1.00 Bohr mag/cell
     absolute magnetization    =     1.10 Bohr mag/cell

     iteration #  4     ecut=    90.00 Ry     beta=0.70
     CG style diagonalization
     ethr =  1.73E-03,  avg # of iterations =  4.0

     negative rho (up, down):  1.521E-05 1.930E-05
 
     Magnetic moment per site:
     atom:    1    charge:    0.8689    magn:    0.0180    constr:    0.0000
     atom:    2    charge:    0.8694    magn:    0.0184    constr:    0.0000
     atom:    3    charge:    0.8637    magn:    0.0127    constr:    0.0000
     atom:    4    charge:    0.8592    magn:    0.0136    constr:    0.0000
     atom:    5    charge:    0.8592    magn:    0.0149    constr:    0.0000
     atom:    6    charge:    0.8635    magn:    0.0132    constr:    0.0000
     atom:    7    charge:    0.4761    magn:    0.0020    constr:    0.0000
     atom:    8    charge:    0.4754    magn:    0.0019    constr:    0.0000
     atom:    9    charge:    0.4738    magn:    0.0004    constr:    0.0000
     atom:   10    charge:    0.4768    magn:    0.0004    constr:    0.0000
     atom:   11    charge:    0.4759    magn:   -0.0001    constr:    0.0000
     atom:   12    charge:    0.4737    magn:    0.0004    constr:    0.0000
     atom:   13    charge:    5.7070    magn:    0.4608    constr:    0.0000

     total cpu time spent up to now is       45.9 secs

     The total energy is the sum of the following terms:

     one-electron contribution =    -701.94330298 Ry
     hartree contribution      =     350.07755787 Ry
     xc contribution           =     -30.56981809 Ry
     ewald contribution        =     268.46058250 Ry

     total energy              =    -114.39490518 Ry
     Harris-Foulkes estimate   =    -114.41537149 Ry
     estimated scf accuracy    <       0.22298040 Ry

     total magnetization       =     1.00 Bohr mag/cell
     absolute magnetization    =     1.09 Bohr mag/cell

     iteration #  5     ecut=    90.00 Ry     beta=0.70
     CG style diagonalization
     ethr =  6.03E-04,  avg # of iterations =  3.0

     negative rho (up, down):  4.088E-05 6.502E-05
 
     Magnetic moment per site:
     atom:    1    charge:    0.8515    magn:    0.0087    constr:    0.0000
     atom:    2    charge:    0.8519    magn:    0.0084    constr:    0.0000
     atom:    3    charge:    0.8491    magn:    0.0068    constr:    0.0000
     atom:    4    charge:    0.8498    magn:    0.0061    constr:    0.0000
     atom:    5    charge:    0.8499    magn:    0.0070    constr:    0.0000
     atom:    6    charge:    0.8486    magn:    0.0070    constr:    0.0000
     atom:    7    charge:    0.4901    magn:    0.0002    constr:    0.0000
     atom:    8    charge:    0.4893    magn:    0.0002    constr:    0.0000
     atom:    9    charge:    0.4888    magn:   -0.0003    constr:    0.0000
     atom:   10    charge:    0.4905    magn:    0.0001    constr:    0.0000
     atom:   11    charge:    0.4901    magn:   -0.0005    constr:    0.0000
     atom:   12    charge:    0.4888    magn:   -0.0003    constr:    0.0000
     atom:   13    charge:    5.7744    magn:    0.7009    constr:    0.0000

     total cpu time spent up to now is       49.2 secs

     The total energy is the sum of the following terms:

     one-electron contribution =    -701.72392345 Ry
     hartree contribution      =     350.19406220 Ry
     xc contribution           =     -30.61955070 Ry
     ewald contribution        =     268.46058250 Ry

     total energy              =    -114.39212486 Ry
     Harris-Foulkes estimate   =    -114.40586279 Ry
     estimated scf accuracy    <       0.14559784 Ry

     total magnetization       =     1.00 Bohr mag/cell
     absolute magnetization    =     1.08 Bohr mag/cell

     iteration #  6     ecut=    90.00 Ry     beta=0.70
     CG style diagonalization
     ethr =  3.94E-04,  avg # of iterations =  3.0

     negative rho (up, down):  5.864E-05 7.992E-05
 
     Magnetic moment per site:
     atom:    1    charge:    0.8411    magn:    0.0026    constr:    0.0000
     atom:    2    charge:    0.8406    magn:    0.0025    constr:    0.0000
     atom:    3    charge:    0.8479    magn:   -0.0010    constr:    0.0000
     atom:    4    charge:    0.8465    magn:    0.0003    constr:    0.0000
     atom:    5    charge:    0.8457    magn:    0.0004    constr:    0.0000
     atom:    6    charge:    0.8489    magn:   -0.0006    constr:    0.0000
     atom:    7    charge:    0.4971    magn:   -0.0005    constr:    0.0000
     atom:    8    charge:    0.4964    magn:   -0.0005    constr:    0.0000
     atom:    9    charge:    0.4957    magn:   -0.0006    constr:    0.0000
     atom:   10    charge:    0.4962    magn:   -0.0002    constr:    0.0000
     atom:   11    charge:    0.4956    magn:   -0.0006    constr:    0.0000
     atom:   12    charge:    0.4958    magn:   -0.0007    constr:    0.0000
     atom:   13    charge:    5.8139    magn:    0.9029    constr:    0.0000

     total cpu time spent up to now is       52.5 secs

     The total energy is the sum of the following terms:

     one-electron contribution =    -702.94062158 Ry
     hartree contribution      =     350.62147531 Ry
     xc contribution           =     -30.70047876 Ry
     ewald contribution        =     268.46058250 Ry

     total energy              =    -114.40730652 Ry
     Harris-Foulkes estimate   =    -114.40344488 Ry
     estimated scf accuracy    <       0.01885507 Ry

     total magnetization       =     1.00 Bohr mag/cell
     absolute magnetization    =     1.23 Bohr mag/cell

     iteration #  7     ecut=    90.00 Ry     beta=0.70
     CG style diagonalization
     ethr =  5.10E-05,  avg # of iterations =  4.1

     negative rho (up, down):  8.250E-06 1.326E-05
 
     Magnetic moment per site:
     atom:    1    charge:    0.8447    magn:   -0.0007    constr:    0.0000
     atom:    2    charge:    0.8450    magn:   -0.0010    constr:    0.0000
     atom:    3    charge:    0.8470    magn:   -0.0066    constr:    0.0000
     atom:    4    charge:    0.8435    magn:   -0.0039    constr:    0.0000
     atom:    5    charge:    0.8442    magn:   -0.0047    constr:    0.0000
     atom:    6    charge:    0.8468    magn:   -0.0060    constr:    0.0000
     atom:    7    charge:    0.4978    magn:   -0.0004    constr:    0.0000
     atom:    8    charge:    0.4972    magn:   -0.0004    constr:    0.0000
     atom:    9    charge:    0.4956    magn:   -0.0006    constr:    0.0000
     atom:   10    charge:    0.4962    magn:   -0.0003    constr:    0.0000
     atom:   11    charge:    0.4956    magn:   -0.0005    constr:    0.0000
     atom:   12    charge:    0.4956    magn:   -0.0006    constr:    0.0000
     atom:   13    charge:    5.7913    magn:    1.0371    constr:    0.0000

     total cpu time spent up to now is       56.6 secs

     The total energy is the sum of the following terms:

     one-electron contribution =    -703.52699954 Ry
     hartree contribution      =     350.63832316 Ry
     xc contribution           =     -30.70173963 Ry
     ewald contribution        =     268.46058250 Ry

     total energy              =    -114.41193616 Ry
     Harris-Foulkes estimate   =    -114.41379059 Ry
     estimated scf accuracy    <       0.01646388 Ry

     total magnetization       =     1.00 Bohr mag/cell
     absolute magnetization    =     1.58 Bohr mag/cell

     iteration #  8     ecut=    90.00 Ry     beta=0.70
     CG style diagonalization
     ethr =  4.45E-05,  avg # of iterations =  3.1

     negative rho (up, down):  3.102E-05 3.554E-05
 
     Magnetic moment per site:
     atom:    1    charge:    0.8448    magn:   -0.0023    constr:    0.0000
     atom:    2    charge:    0.8450    magn:   -0.0024    constr:    0.0000
     atom:    3    charge:    0.8459    magn:   -0.0085    constr:    0.0000
     atom:    4    charge:    0.8440    magn:   -0.0056    constr:    0.0000
     atom:    5    charge:    0.8445    magn:   -0.0065    constr:    0.0000
     atom:    6    charge:    0.8457    magn:   -0.0079    constr:    0.0000
     atom:    7    charge:    0.4988    magn:   -0.0005    constr:    0.0000
     atom:    8    charge:    0.4982    magn:   -0.0004    constr:    0.0000
     atom:    9    charge:    0.4966    magn:   -0.0004    constr:    0.0000
     atom:   10    charge:    0.4972    magn:   -0.0002    constr:    0.0000
     atom:   11    charge:    0.4965    magn:   -0.0003    constr:    0.0000
     atom:   12    charge:    0.4967    magn:   -0.0004    constr:    0.0000
     atom:   13    charge:    5.8145    magn:    1.0846    constr:    0.0000

     total cpu time spent up to now is       59.9 secs

     The total energy is the sum of the following terms:

     one-electron contribution =    -702.97585858 Ry
     hartree contribution      =     350.87938361 Ry
     xc contribution           =     -30.74556468 Ry
     ewald contribution        =     268.46058250 Ry

     total energy              =    -114.41419185 Ry
     Harris-Foulkes estimate   =    -114.41478607 Ry
     estimated scf accuracy    <       0.00304255 Ry

     total magnetization       =     1.00 Bohr mag/cell
     absolute magnetization    =     1.41 Bohr mag/cell

     iteration #  9     ecut=    90.00 Ry     beta=0.70
     CG style diagonalization
     ethr =  8.22E-06,  avg # of iterations =  3.7

     negative rho (up, down):  1.106E-05 1.447E-05
 
     Magnetic moment per site:
     atom:    1    charge:    0.8449    magn:   -0.0027    constr:    0.0000
     atom:    2    charge:    0.8449    magn:   -0.0027    constr:    0.0000
     atom:    3    charge:    0.8465    magn:   -0.0093    constr:    0.0000
     atom:    4    charge:    0.8447    magn:   -0.0065    constr:    0.0000
     atom:    5    charge:    0.8450    magn:   -0.0073    constr:    0.0000
     atom:    6    charge:    0.8465    magn:   -0.0088    constr:    0.0000
     atom:    7    charge:    0.4982    magn:   -0.0003    constr:    0.0000
     atom:    8    charge:    0.4976    magn:   -0.0003    constr:    0.0000
     atom:    9    charge:    0.4961    magn:   -0.0002    constr:    0.0000
     atom:   10    charge:    0.4966    magn:   -0.0001    constr:    0.0000
     atom:   11    charge:    0.4959    magn:   -0.0002    constr:    0.0000
     atom:   12    charge:    0.4961    magn:   -0.0002    constr:    0.0000
     atom:   13    charge:    5.8067    magn:    1.1004    constr:    0.0000

     total cpu time spent up to now is       63.7 secs

     The total energy is the sum of the following terms:

     one-electron contribution =    -703.18329078 Ry
     hartree contribution      =     350.82634791 Ry
     xc contribution           =     -30.73624275 Ry
     ewald contribution        =     268.46058250 Ry

     total energy              =    -114.41469423 Ry
     Harris-Foulkes estimate   =    -114.41511856 Ry
     estimated scf accuracy    <       0.00302870 Ry

     total magnetization       =     1.00 Bohr mag/cell
     absolute magnetization    =     1.61 Bohr mag/cell

     iteration # 10     ecut=    90.00 Ry     beta=0.70
     CG style diagonalization
     ethr =  8.19E-06,  avg # of iterations =  3.0

     negative rho (up, down):  4.940E-06 5.686E-06
 
     Magnetic moment per site:
     atom:    1    charge:    0.8455    magn:   -0.0034    constr:    0.0000
     atom:    2    charge:    0.8455    magn:   -0.0031    constr:    0.0000
     atom:    3    charge:    0.8465    magn:   -0.0104    constr:    0.0000
     atom:    4    charge:    0.8446    magn:   -0.0078    constr:    0.0000
     atom:    5    charge:    0.8446    magn:   -0.0084    constr:    0.0000
     atom:    6    charge:    0.8466    magn:   -0.0098    constr:    0.0000
     atom:    7    charge:    0.4983    magn:   -0.0001    constr:    0.0000
     atom:    8    charge:    0.4977    magn:   -0.0001    constr:    0.0000
     atom:    9    charge:    0.4961    magn:    0.0001    constr:    0.0000
     atom:   10    charge:    0.4966    magn:    0.0001    constr:    0.0000
     atom:   11    charge:    0.4958    magn:    0.0000    constr:    0.0000
     atom:   12    charge:    0.4962    magn:    0.0000    constr:    0.0000
     atom:   13    charge:    5.8099    magn:    1.1211    constr:    0.0000

     total cpu time spent up to now is       67.0 secs

     The total energy is the sum of the following terms:

     one-electron contribution =    -703.01415451 Ry
     hartree contribution      =     350.87887674 Ry
     xc contribution           =     -30.74471430 Ry
     ewald contribution        =     268.46058250 Ry

     total energy              =    -114.41498398 Ry
     Harris-Foulkes estimate   =    -114.41496549 Ry
     estimated scf accuracy    <       0.00008172 Ry

     total magnetization       =     1.00 Bohr mag/cell
     absolute magnetization    =     1.53 Bohr mag/cell

     iteration # 11     ecut=    90.00 Ry     beta=0.70
     CG style diagonalization
     ethr =  2.21E-07,  avg # of iterations =  4.9

     negative rho (up, down):  6.535E-07 8.847E-07
 
     Magnetic moment per site:
     atom:    1    charge:    0.8455    magn:   -0.0037    constr:    0.0000
     atom:    2    charge:    0.8455    magn:   -0.0033    constr:    0.0000
     atom:    3    charge:    0.8464    magn:   -0.0106    constr:    0.0000
     atom:    4    charge:    0.8446    magn:   -0.0083    constr:    0.0000
     atom:    5    charge:    0.8448    magn:   -0.0088    constr:    0.0000
     atom:    6    charge:    0.8464    magn:   -0.0101    constr:    0.0000
     atom:    7    charge:    0.4983    magn:    0.0000    constr:    0.0000
     atom:    8    charge:    0.4977    magn:    0.0000    constr:    0.0000
     atom:    9    charge:    0.4961    magn:    0.0002    constr:    0.0000
     atom:   10    charge:    0.4965    magn:    0.0002    constr:    0.0000
     atom:   11    charge:    0.4958    magn:    0.0001    constr:    0.0000
     atom:   12    charge:    0.4961    magn:    0.0002    constr:    0.0000
     atom:   13    charge:    5.8086    magn:    1.1254    constr:    0.0000

     total cpu time spent up to now is       71.5 secs

     The total energy is the sum of the following terms:

     one-electron contribution =    -703.01018940 Ry
     hartree contribution      =     350.86676395 Ry
     xc contribution           =     -30.74334752 Ry
     ewald contribution        =     268.46058250 Ry

     total energy              =    -114.41503864 Ry
     Harris-Foulkes estimate   =    -114.41503850 Ry
     estimated scf accuracy    <       0.00010311 Ry

     total magnetization       =     1.00 Bohr mag/cell
     absolute magnetization    =     1.57 Bohr mag/cell

     iteration # 12     ecut=    90.00 Ry     beta=0.70
     CG style diagonalization
     ethr =  2.21E-07,  avg # of iterations =  3.2
 
     Magnetic moment per site:
     atom:    1    charge:    0.8455    magn:   -0.0041    constr:    0.0000
     atom:    2    charge:    0.8455    magn:   -0.0034    constr:    0.0000
     atom:    3    charge:    0.8464    magn:   -0.0109    constr:    0.0000
     atom:    4    charge:    0.8446    magn:   -0.0091    constr:    0.0000
     atom:    5    charge:    0.8447    magn:   -0.0093    constr:    0.0000
     atom:    6    charge:    0.8465    magn:   -0.0105    constr:    0.0000
     atom:    7    charge:    0.4984    magn:    0.0001    constr:    0.0000
     atom:    8    charge:    0.4978    magn:    0.0001    constr:    0.0000
     atom:    9    charge:    0.4961    magn:    0.0003    constr:    0.0000
     atom:   10    charge:    0.4965    magn:    0.0003    constr:    0.0000
     atom:   11    charge:    0.4958    magn:    0.0003    constr:    0.0000
     atom:   12    charge:    0.4961    magn:    0.0003    constr:    0.0000
     atom:   13    charge:    5.8081    magn:    1.1308    constr:    0.0000

     total cpu time spent up to now is       74.8 secs

     The total energy is the sum of the following terms:

     one-electron contribution =    -703.00294008 Ry
     hartree contribution      =     350.86601524 Ry
     xc contribution           =     -30.74353313 Ry
     ewald contribution        =     268.46058250 Ry

     total energy              =    -114.41505420 Ry
     Harris-Foulkes estimate   =    -114.41504513 Ry
     estimated scf accuracy    <       0.00002198 Ry

     total magnetization       =     1.00 Bohr mag/cell
     absolute magnetization    =     1.56 Bohr mag/cell

     iteration # 13     ecut=    90.00 Ry     beta=0.70
     CG style diagonalization
     ethr =  5.94E-08,  avg # of iterations =  3.7
 
     Magnetic moment per site:
     atom:    1    charge:    0.8455    magn:   -0.0043    constr:    0.0000
     atom:    2    charge:    0.8455    magn:   -0.0035    constr:    0.0000
     atom:    3    charge:    0.8464    magn:   -0.0109    constr:    0.0000
     atom:    4    charge:    0.8446    magn:   -0.0096    constr:    0.0000
     atom:    5    charge:    0.8447    magn:   -0.0095    constr:    0.0000
     atom:    6    charge:    0.8465    magn:   -0.0106    constr:    0.0000
     atom:    7    charge:    0.4984    magn:    0.0002    constr:    0.0000
     atom:    8    charge:    0.4978    magn:    0.0002    constr:    0.0000
     atom:    9    charge:    0.4961    magn:    0.0004    constr:    0.0000
     atom:   10    charge:    0.4965    magn:    0.0003    constr:    0.0000
     atom:   11    charge:    0.4958    magn:    0.0004    constr:    0.0000
     atom:   12    charge:    0.4961    magn:    0.0004    constr:    0.0000
     atom:   13    charge:    5.8081    magn:    1.1330    constr:    0.0000

     total cpu time spent up to now is       78.5 secs

     The total energy is the sum of the following terms:

     one-electron contribution =    -703.00019091 Ry
     hartree contribution      =     350.87050057 Ry
     xc contribution           =     -30.74411337 Ry
     ewald contribution        =     268.46058250 Ry

     total energy              =    -114.41506843 Ry
     Harris-Foulkes estimate   =    -114.41506214 Ry
     estimated scf accuracy    <       0.00001057 Ry

     total magnetization       =     1.00 Bohr mag/cell
     absolute magnetization    =     1.56 Bohr mag/cell

     iteration # 14     ecut=    90.00 Ry     beta=0.70
     CG style diagonalization
     ethr =  2.86E-08,  avg # of iterations =  3.3
 
     Magnetic moment per site:
     atom:    1    charge:    0.8454    magn:   -0.0045    constr:    0.0000
     atom:    2    charge:    0.8455    magn:   -0.0035    constr:    0.0000
     atom:    3    charge:    0.8464    magn:   -0.0107    constr:    0.0000
     atom:    4    charge:    0.8446    magn:   -0.0102    constr:    0.0000
     atom:    5    charge:    0.8447    magn:   -0.0096    constr:    0.0000
     atom:    6    charge:    0.8465    magn:   -0.0105    constr:    0.0000
     atom:    7    charge:    0.4984    magn:    0.0003    constr:    0.0000
     atom:    8    charge:    0.4978    magn:    0.0002    constr:    0.0000
     atom:    9    charge:    0.4961    magn:    0.0005    constr:    0.0000
     atom:   10    charge:    0.4965    magn:    0.0004    constr:    0.0000
     atom:   11    charge:    0.4958    magn:    0.0004    constr:    0.0000
     atom:   12    charge:    0.4961    magn:    0.0005    constr:    0.0000
     atom:   13    charge:    5.8078    magn:    1.1331    constr:    0.0000

     total cpu time spent up to now is       81.9 secs

     The total energy is the sum of the following terms:

     one-electron contribution =    -702.99669162 Ry
     hartree contribution      =     350.86493138 Ry
     xc contribution           =     -30.74320998 Ry
     ewald contribution        =     268.46058250 Ry

     total energy              =    -114.41507182 Ry
     Harris-Foulkes estimate   =    -114.41507465 Ry
     estimated scf accuracy    <       0.00000825 Ry

     total magnetization       =     1.00 Bohr mag/cell
     absolute magnetization    =     1.57 Bohr mag/cell

     iteration # 15     ecut=    90.00 Ry     beta=0.70
     CG style diagonalization
     ethr =  2.23E-08,  avg # of iterations =  3.7

     negative rho (up, down):  2.895E-08 8.326E-08
 
     Magnetic moment per site:
     atom:    1    charge:    0.8455    magn:   -0.0047    constr:    0.0000
     atom:    2    charge:    0.8456    magn:   -0.0037    constr:    0.0000
     atom:    3    charge:    0.8464    magn:   -0.0102    constr:    0.0000
     atom:    4    charge:    0.8447    magn:   -0.0106    constr:    0.0000
     atom:    5    charge:    0.8447    magn:   -0.0095    constr:    0.0000
     atom:    6    charge:    0.8464    magn:   -0.0104    constr:    0.0000
     atom:    7    charge:    0.4984    magn:    0.0003    constr:    0.0000
     atom:    8    charge:    0.4977    magn:    0.0002    constr:    0.0000
     atom:    9    charge:    0.4961    magn:    0.0004    constr:    0.0000
     atom:   10    charge:    0.4965    magn:    0.0004    constr:    0.0000
     atom:   11    charge:    0.4958    magn:    0.0004    constr:    0.0000
     atom:   12    charge:    0.4961    magn:    0.0004    constr:    0.0000
     atom:   13    charge:    5.8077    magn:    1.1343    constr:    0.0000

     total cpu time spent up to now is       85.6 secs

     The total energy is the sum of the following terms:

     one-electron contribution =    -703.00107462 Ry
     hartree contribution      =     350.86745906 Ry
     xc contribution           =     -30.74368275 Ry
     ewald contribution        =     268.46058250 Ry

     total energy              =    -114.41506343 Ry
     Harris-Foulkes estimate   =    -114.41509519 Ry
     estimated scf accuracy    <       0.00000446 Ry

     total magnetization       =     1.00 Bohr mag/cell
     absolute magnetization    =     1.57 Bohr mag/cell

     iteration # 16     ecut=    90.00 Ry     beta=0.70
     CG style diagonalization
     ethr =  1.21E-08,  avg # of iterations =  4.4

     negative rho (up, down):  1.051E-09 1.470E-08
 
     Magnetic moment per site:
     atom:    1    charge:    0.8455    magn:   -0.0047    constr:    0.0000
     atom:    2    charge:    0.8456    magn:   -0.0038    constr:    0.0000
     atom:    3    charge:    0.8464    magn:   -0.0100    constr:    0.0000
     atom:    4    charge:    0.8446    magn:   -0.0106    constr:    0.0000
     atom:    5    charge:    0.8448    magn:   -0.0095    constr:    0.0000
     atom:    6    charge:    0.8464    magn:   -0.0102    constr:    0.0000
     atom:    7    charge:    0.4984    magn:    0.0003    constr:    0.0000
     atom:    8    charge:    0.4977    magn:    0.0002    constr:    0.0000
     atom:    9    charge:    0.4961    magn:    0.0004    constr:    0.0000
     atom:   10    charge:    0.4965    magn:    0.0005    constr:    0.0000
     atom:   11    charge:    0.4958    magn:    0.0004    constr:    0.0000
     atom:   12    charge:    0.4961    magn:    0.0004    constr:    0.0000
     atom:   13    charge:    5.8075    magn:    1.1340    constr:    0.0000

     total cpu time spent up to now is       89.8 secs

     The total energy is the sum of the following terms:

     one-electron contribution =    -702.99917011 Ry
     hartree contribution      =     350.86640658 Ry
     xc contribution           =     -30.74355944 Ry
     ewald contribution        =     268.46058250 Ry

     total energy              =    -114.41510437 Ry
     Harris-Foulkes estimate   =    -114.41511872 Ry
     estimated scf accuracy    <       0.00000228 Ry

     total magnetization       =     1.00 Bohr mag/cell
     absolute magnetization    =     1.57 Bohr mag/cell

     iteration # 17     ecut=    90.00 Ry     beta=0.70
     CG style diagonalization
     ethr =  6.16E-09,  avg # of iterations =  4.1

     negative rho (up, down):  2.976E-08 9.152E-08
 
     Magnetic moment per site:
     atom:    1    charge:    0.8454    magn:   -0.0045    constr:    0.0000
     atom:    2    charge:    0.8456    magn:   -0.0039    constr:    0.0000
     atom:    3    charge:    0.8464    magn:   -0.0098    constr:    0.0000
     atom:    4    charge:    0.8446    magn:   -0.0105    constr:    0.0000
     atom:    5    charge:    0.8448    magn:   -0.0094    constr:    0.0000
     atom:    6    charge:    0.8464    magn:   -0.0101    constr:    0.0000
     atom:    7    charge:    0.4984    magn:    0.0002    constr:    0.0000
     atom:    8    charge:    0.4977    magn:    0.0002    constr:    0.0000
     atom:    9    charge:    0.4961    magn:    0.0004    constr:    0.0000
     atom:   10    charge:    0.4965    magn:    0.0004    constr:    0.0000
     atom:   11    charge:    0.4958    magn:    0.0004    constr:    0.0000
     atom:   12    charge:    0.4961    magn:    0.0004    constr:    0.0000
     atom:   13    charge:    5.8075    magn:    1.1327    constr:    0.0000

     total cpu time spent up to now is       93.8 secs

     The total energy is the sum of the following terms:

     one-electron contribution =    -702.99405505 Ry
     hartree contribution      =     350.86439194 Ry
     xc contribution           =     -30.74351278 Ry
     ewald contribution        =     268.46058250 Ry

     total energy              =    -114.41511225 Ry
     Harris-Foulkes estimate   =    -114.41512981 Ry
     estimated scf accuracy    <       0.00000198 Ry

     total magnetization       =     1.00 Bohr mag/cell
     absolute magnetization    =     1.57 Bohr mag/cell

     iteration # 18     ecut=    90.00 Ry     beta=0.70
     CG style diagonalization
     ethr =  5.35E-09,  avg # of iterations =  4.0
 
     Magnetic moment per site:
     atom:    1    charge:    0.8454    magn:   -0.0044    constr:    0.0000
     atom:    2    charge:    0.8456    magn:   -0.0040    constr:    0.0000
     atom:    3    charge:    0.8464    magn:   -0.0099    constr:    0.0000
     atom:    4    charge:    0.8446    magn:   -0.0103    constr:    0.0000
     atom:    5    charge:    0.8448    magn:   -0.0094    constr:    0.0000
     atom:    6    charge:    0.8464    magn:   -0.0101    constr:    0.0000
     atom:    7    charge:    0.4984    magn:    0.0002    constr:    0.0000
     atom:    8    charge:    0.4977    magn:    0.0002    constr:    0.0000
     atom:    9    charge:    0.4961    magn:    0.0004    constr:    0.0000
     atom:   10    charge:    0.4965    magn:    0.0004    constr:    0.0000
     atom:   11    charge:    0.4958    magn:    0.0004    constr:    0.0000
     atom:   12    charge:    0.4961    magn:    0.0004    constr:    0.0000
     atom:   13    charge:    5.8076    magn:    1.1320    constr:    0.0000

     total cpu time spent up to now is       97.7 secs

     The total energy is the sum of the following terms:

     one-electron contribution =    -702.99692755 Ry
     hartree contribution      =     350.86377633 Ry
     xc contribution           =     -30.74354036 Ry
     ewald contribution        =     268.46058250 Ry

     total energy              =    -114.41513019 Ry
     Harris-Foulkes estimate   =    -114.41513684 Ry
     estimated scf accuracy    <       0.00000081 Ry

     total magnetization       =     1.00 Bohr mag/cell
     absolute magnetization    =     1.57 Bohr mag/cell

     iteration # 19     ecut=    90.00 Ry     beta=0.70
     CG style diagonalization
     ethr =  2.18E-09,  avg # of iterations =  4.4
 
     Magnetic moment per site:
     atom:    1    charge:    0.8454    magn:   -0.0042    constr:    0.0000
     atom:    2    charge:    0.8456    magn:   -0.0040    constr:    0.0000
     atom:    3    charge:    0.8464    magn:   -0.0100    constr:    0.0000
     atom:    4    charge:    0.8446    magn:   -0.0101    constr:    0.0000
     atom:    5    charge:    0.8448    magn:   -0.0094    constr:    0.0000
     atom:    6    charge:    0.8464    magn:   -0.0102    constr:    0.0000
     atom:    7    charge:    0.4984    magn:    0.0002    constr:    0.0000
     atom:    8    charge:    0.4977    magn:    0.0002    constr:    0.0000
     atom:    9    charge:    0.4961    magn:    0.0004    constr:    0.0000
     atom:   10    charge:    0.4965    magn:    0.0004    constr:    0.0000
     atom:   11    charge:    0.4958    magn:    0.0004    constr:    0.0000
     atom:   12    charge:    0.4961    magn:    0.0004    constr:    0.0000
     atom:   13    charge:    5.8076    magn:    1.1317    constr:    0.0000

     total cpu time spent up to now is      101.9 secs

     The total energy is the sum of the following terms:

     one-electron contribution =    -702.99726679 Ry
     hartree contribution      =     350.86406868 Ry
     xc contribution           =     -30.74353981 Ry
     ewald contribution        =     268.46058250 Ry

     total energy              =    -114.41513818 Ry
     Harris-Foulkes estimate   =    -114.41513968 Ry
     estimated scf accuracy    <       0.00000040 Ry

     total magnetization       =     1.00 Bohr mag/cell
     absolute magnetization    =     1.57 Bohr mag/cell

     iteration # 20     ecut=    90.00 Ry     beta=0.70
     CG style diagonalization
     ethr =  1.08E-09,  avg # of iterations =  4.3
 
     Magnetic moment per site:
     atom:    1    charge:    0.8454    magn:   -0.0041    constr:    0.0000
     atom:    2    charge:    0.8456    magn:   -0.0040    constr:    0.0000
     atom:    3    charge:    0.8464    magn:   -0.0102    constr:    0.0000
     atom:    4    charge:    0.8446    magn:   -0.0099    constr:    0.0000
     atom:    5    charge:    0.8448    magn:   -0.0096    constr:    0.0000
     atom:    6    charge:    0.8464    magn:   -0.0103    constr:    0.0000
     atom:    7    charge:    0.4984    magn:    0.0002    constr:    0.0000
     atom:    8    charge:    0.4977    magn:    0.0002    constr:    0.0000
     atom:    9    charge:    0.4961    magn:    0.0004    constr:    0.0000
     atom:   10    charge:    0.4965    magn:    0.0004    constr:    0.0000
     atom:   11    charge:    0.4958    magn:    0.0004    constr:    0.0000
     atom:   12    charge:    0.4961    magn:    0.0004    constr:    0.0000
     atom:   13    charge:    5.8075    magn:    1.1321    constr:    0.0000

     total cpu time spent up to now is      106.0 secs

     The total energy is the sum of the following terms:

     one-electron contribution =    -702.99524158 Ry
     hartree contribution      =     350.86337832 Ry
     xc contribution           =     -30.74348428 Ry
     ewald contribution        =     268.46058250 Ry

     total energy              =    -114.41514048 Ry
     Harris-Foulkes estimate   =    -114.41514073 Ry
     estimated scf accuracy    <       0.00000015 Ry

     total magnetization       =     1.00 Bohr mag/cell
     absolute magnetization    =     1.57 Bohr mag/cell

     iteration # 21     ecut=    90.00 Ry     beta=0.70
     CG style diagonalization
     ethr =  4.11E-10,  avg # of iterations =  4.5
 
     Magnetic moment per site:
     atom:    1    charge:    0.8454    magn:   -0.0040    constr:    0.0000
     atom:    2    charge:    0.8456    magn:   -0.0041    constr:    0.0000
     atom:    3    charge:    0.8464    magn:   -0.0103    constr:    0.0000
     atom:    4    charge:    0.8446    magn:   -0.0098    constr:    0.0000
     atom:    5    charge:    0.8448    magn:   -0.0096    constr:    0.0000
     atom:    6    charge:    0.8464    magn:   -0.0104    constr:    0.0000
     atom:    7    charge:    0.4984    magn:    0.0002    constr:    0.0000
     atom:    8    charge:    0.4977    magn:    0.0002    constr:    0.0000
     atom:    9    charge:    0.4961    magn:    0.0004    constr:    0.0000
     atom:   10    charge:    0.4965    magn:    0.0004    constr:    0.0000
     atom:   11    charge:    0.4958    magn:    0.0004    constr:    0.0000
     atom:   12    charge:    0.4961    magn:    0.0004    constr:    0.0000
     atom:   13    charge:    5.8075    magn:    1.1324    constr:    0.0000

     total cpu time spent up to now is      110.2 secs

     The total energy is the sum of the following terms:

     one-electron contribution =    -702.99598537 Ry
     hartree contribution      =     350.86318496 Ry
     xc contribution           =     -30.74349479 Ry
     ewald contribution        =     268.46058250 Ry

     total energy              =    -114.41514051 Ry
     Harris-Foulkes estimate   =    -114.41514110 Ry
     estimated scf accuracy    <       0.00000006 Ry

     total magnetization       =     1.00 Bohr mag/cell
     absolute magnetization    =     1.57 Bohr mag/cell

     iteration # 22     ecut=    90.00 Ry     beta=0.70
     CG style diagonalization
     ethr =  1.49E-10,  avg # of iterations =  4.9
 
     Magnetic moment per site:
     atom:    1    charge:    0.8454    magn:   -0.0040    constr:    0.0000
     atom:    2    charge:    0.8456    magn:   -0.0041    constr:    0.0000
     atom:    3    charge:    0.8464    magn:   -0.0104    constr:    0.0000
     atom:    4    charge:    0.8446    magn:   -0.0098    constr:    0.0000
     atom:    5    charge:    0.8448    magn:   -0.0097    constr:    0.0000
     atom:    6    charge:    0.8464    magn:   -0.0104    constr:    0.0000
     atom:    7    charge:    0.4984    magn:    0.0002    constr:    0.0000
     atom:    8    charge:    0.4977    magn:    0.0002    constr:    0.0000
     atom:    9    charge:    0.4961    magn:    0.0004    constr:    0.0000
     atom:   10    charge:    0.4965    magn:    0.0004    constr:    0.0000
     atom:   11    charge:    0.4958    magn:    0.0004    constr:    0.0000
     atom:   12    charge:    0.4961    magn:    0.0004    constr:    0.0000
     atom:   13    charge:    5.8074    magn:    1.1328    constr:    0.0000

     total cpu time spent up to now is      114.7 secs

     The total energy is the sum of the following terms:

     one-electron contribution =    -702.99650350 Ry
     hartree contribution      =     350.86348201 Ry
     xc contribution           =     -30.74351665 Ry
     ewald contribution        =     268.46058250 Ry

     total energy              =    -114.41514126 Ry
     Harris-Foulkes estimate   =    -114.41514126 Ry
     estimated scf accuracy    <       0.00000008 Ry

     total magnetization       =     1.00 Bohr mag/cell
     absolute magnetization    =     1.57 Bohr mag/cell

     iteration # 23     ecut=    90.00 Ry     beta=0.70
     CG style diagonalization
     ethr =  1.49E-10,  avg # of iterations =  3.6
 
     Magnetic moment per site:
     atom:    1    charge:    0.8454    magn:   -0.0040    constr:    0.0000
     atom:    2    charge:    0.8456    magn:   -0.0040    constr:    0.0000
     atom:    3    charge:    0.8464    magn:   -0.0104    constr:    0.0000
     atom:    4    charge:    0.8446    magn:   -0.0097    constr:    0.0000
     atom:    5    charge:    0.8448    magn:   -0.0097    constr:    0.0000
     atom:    6    charge:    0.8464    magn:   -0.0104    constr:    0.0000
     atom:    7    charge:    0.4984    magn:    0.0002    constr:    0.0000
     atom:    8    charge:    0.4977    magn:    0.0002    constr:    0.0000
     atom:    9    charge:    0.4961    magn:    0.0004    constr:    0.0000
     atom:   10    charge:    0.4965    magn:    0.0004    constr:    0.0000
     atom:   11    charge:    0.4958    magn:    0.0004    constr:    0.0000
     atom:   12    charge:    0.4961    magn:    0.0004    constr:    0.0000
     atom:   13    charge:    5.8074    magn:    1.1328    constr:    0.0000

     total cpu time spent up to now is      118.3 secs

     The total energy is the sum of the following terms:

     one-electron contribution =    -702.99515392 Ry
     hartree contribution      =     350.86342917 Ry
     xc contribution           =     -30.74350543 Ry
     ewald contribution        =     268.46058250 Ry

     total energy              =    -114.41514130 Ry
     Harris-Foulkes estimate   =    -114.41514130 Ry
     estimated scf accuracy    <       0.00000002 Ry

     total magnetization       =     1.00 Bohr mag/cell
     absolute magnetization    =     1.57 Bohr mag/cell

     iteration # 24     ecut=    90.00 Ry     beta=0.70
     CG style diagonalization
     ethr =  4.61E-11,  avg # of iterations =  3.5
 
     Magnetic moment per site:
     atom:    1    charge:    0.8454    magn:   -0.0040    constr:    0.0000
     atom:    2    charge:    0.8456    magn:   -0.0040    constr:    0.0000
     atom:    3    charge:    0.8464    magn:   -0.0104    constr:    0.0000
     atom:    4    charge:    0.8446    magn:   -0.0097    constr:    0.0000
     atom:    5    charge:    0.8448    magn:   -0.0098    constr:    0.0000
     atom:    6    charge:    0.8464    magn:   -0.0104    constr:    0.0000
     atom:    7    charge:    0.4984    magn:    0.0002    constr:    0.0000
     atom:    8    charge:    0.4977    magn:    0.0002    constr:    0.0000
     atom:    9    charge:    0.4961    magn:    0.0004    constr:    0.0000
     atom:   10    charge:    0.4965    magn:    0.0004    constr:    0.0000
     atom:   11    charge:    0.4958    magn:    0.0004    constr:    0.0000
     atom:   12    charge:    0.4961    magn:    0.0004    constr:    0.0000
     atom:   13    charge:    5.8074    magn:    1.1329    constr:    0.0000

     total cpu time spent up to now is      121.8 secs

     The total energy is the sum of the following terms:

     one-electron contribution =    -702.99552772 Ry
     hartree contribution      =     350.86340418 Ry
     xc contribution           =     -30.74351086 Ry
     ewald contribution        =     268.46058250 Ry

     total energy              =    -114.41514132 Ry
     Harris-Foulkes estimate   =    -114.41514132 Ry
     estimated scf accuracy    <          7.5E-09 Ry

     total magnetization       =     1.00 Bohr mag/cell
     absolute magnetization    =     1.57 Bohr mag/cell

     iteration # 25     ecut=    90.00 Ry     beta=0.70
     CG style diagonalization
     ethr =  2.02E-11,  avg # of iterations =  3.7
 
     Magnetic moment per site:
     atom:    1    charge:    0.8454    magn:   -0.0040    constr:    0.0000
     atom:    2    charge:    0.8456    magn:   -0.0040    constr:    0.0000
     atom:    3    charge:    0.8464    magn:   -0.0104    constr:    0.0000
     atom:    4    charge:    0.8446    magn:   -0.0097    constr:    0.0000
     atom:    5    charge:    0.8448    magn:   -0.0098    constr:    0.0000
     atom:    6    charge:    0.8464    magn:   -0.0104    constr:    0.0000
     atom:    7    charge:    0.4984    magn:    0.0002    constr:    0.0000
     atom:    8    charge:    0.4977    magn:    0.0002    constr:    0.0000
     atom:    9    charge:    0.4961    magn:    0.0004    constr:    0.0000
     atom:   10    charge:    0.4965    magn:    0.0004    constr:    0.0000
     atom:   11    charge:    0.4958    magn:    0.0004    constr:    0.0000
     atom:   12    charge:    0.4961    magn:    0.0004    constr:    0.0000
     atom:   13    charge:    5.8074    magn:    1.1329    constr:    0.0000

     total cpu time spent up to now is      125.5 secs

     The total energy is the sum of the following terms:

     one-electron contribution =    -702.99531958 Ry
     hartree contribution      =     350.86331449 Ry
     xc contribution           =     -30.74352382 Ry
     ewald contribution        =     268.46058250 Ry

     total energy              =    -114.41514129 Ry
     Harris-Foulkes estimate   =    -114.41514133 Ry
     estimated scf accuracy    <          8.3E-09 Ry

     total magnetization       =     1.00 Bohr mag/cell
     absolute magnetization    =     1.57 Bohr mag/cell

     iteration # 26     ecut=    90.00 Ry     beta=0.70
     CG style diagonalization
     ethr =  2.02E-11,  avg # of iterations =  4.0
 
     Magnetic moment per site:
     atom:    1    charge:    0.8454    magn:   -0.0040    constr:    0.0000
     atom:    2    charge:    0.8456    magn:   -0.0040    constr:    0.0000
     atom:    3    charge:    0.8464    magn:   -0.0104    constr:    0.0000
     atom:    4    charge:    0.8446    magn:   -0.0097    constr:    0.0000
     atom:    5    charge:    0.8448    magn:   -0.0098    constr:    0.0000
     atom:    6    charge:    0.8464    magn:   -0.0104    constr:    0.0000
     atom:    7    charge:    0.4984    magn:    0.0002    constr:    0.0000
     atom:    8    charge:    0.4977    magn:    0.0002    constr:    0.0000
     atom:    9    charge:    0.4961    magn:    0.0004    constr:    0.0000
     atom:   10    charge:    0.4965    magn:    0.0004    constr:    0.0000
     atom:   11    charge:    0.4958    magn:    0.0004    constr:    0.0000
     atom:   12    charge:    0.4961    magn:    0.0004    constr:    0.0000
     atom:   13    charge:    5.8074    magn:    1.1328    constr:    0.0000

     total cpu time spent up to now is      129.4 secs

     The total energy is the sum of the following terms:

     one-electron contribution =    -702.99537215 Ry
     hartree contribution      =     350.86322507 Ry
     xc contribution           =     -30.74351927 Ry
     ewald contribution        =     268.46058250 Ry

     total energy              =    -114.41514135 Ry
     Harris-Foulkes estimate   =    -114.41514136 Ry
     estimated scf accuracy    <          3.9E-09 Ry

     total magnetization       =     1.00 Bohr mag/cell
     absolute magnetization    =     1.57 Bohr mag/cell

     iteration # 27     ecut=    90.00 Ry     beta=0.70
     CG style diagonalization
     ethr =  1.05E-11,  avg # of iterations =  4.2
 
     Magnetic moment per site:
     atom:    1    charge:    0.8454    magn:   -0.0040    constr:    0.0000
     atom:    2    charge:    0.8456    magn:   -0.0040    constr:    0.0000
     atom:    3    charge:    0.8464    magn:   -0.0104    constr:    0.0000
     atom:    4    charge:    0.8446    magn:   -0.0097    constr:    0.0000
     atom:    5    charge:    0.8448    magn:   -0.0098    constr:    0.0000
     atom:    6    charge:    0.8464    magn:   -0.0104    constr:    0.0000
     atom:    7    charge:    0.4984    magn:    0.0002    constr:    0.0000
     atom:    8    charge:    0.4977    magn:    0.0002    constr:    0.0000
     atom:    9    charge:    0.4961    magn:    0.0004    constr:    0.0000
     atom:   10    charge:    0.4965    magn:    0.0004    constr:    0.0000
     atom:   11    charge:    0.4958    magn:    0.0004    constr:    0.0000
     atom:   12    charge:    0.4961    magn:    0.0004    constr:    0.0000
     atom:   13    charge:    5.8074    magn:    1.1328    constr:    0.0000

     total cpu time spent up to now is      133.5 secs

     The total energy is the sum of the following terms:

     one-electron contribution =    -702.99556058 Ry
     hartree contribution      =     350.86315486 Ry
     xc contribution           =     -30.74351831 Ry
     ewald contribution        =     268.46058250 Ry

     total energy              =    -114.41514135 Ry
     Harris-Foulkes estimate   =    -114.41514137 Ry
     estimated scf accuracy    <          4.9E-09 Ry

     total magnetization       =     1.00 Bohr mag/cell
     absolute magnetization    =     1.57 Bohr mag/cell

     iteration # 28     ecut=    90.00 Ry     beta=0.70
     CG style diagonalization
     ethr =  1.05E-11,  avg # of iterations =  3.7
 
     Magnetic moment per site:
     atom:    1    charge:    0.8454    magn:   -0.0040    constr:    0.0000
     atom:    2    charge:    0.8456    magn:   -0.0040    constr:    0.0000
     atom:    3    charge:    0.8464    magn:   -0.0104    constr:    0.0000
     atom:    4    charge:    0.8446    magn:   -0.0097    constr:    0.0000
     atom:    5    charge:    0.8448    magn:   -0.0098    constr:    0.0000
     atom:    6    charge:    0.8464    magn:   -0.0104    constr:    0.0000
     atom:    7    charge:    0.4984    magn:    0.0002    constr:    0.0000
     atom:    8    charge:    0.4977    magn:    0.0002    constr:    0.0000
     atom:    9    charge:    0.4961    magn:    0.0004    constr:    0.0000
     atom:   10    charge:    0.4965    magn:    0.0004    constr:    0.0000
     atom:   11    charge:    0.4958    magn:    0.0004    constr:    0.0000
     atom:   12    charge:    0.4961    magn:    0.0004    constr:    0.0000
     atom:   13    charge:    5.8074    magn:    1.1327    constr:    0.0000

     total cpu time spent up to now is      137.2 secs

     The total energy is the sum of the following terms:

     one-electron contribution =    -702.99543085 Ry
     hartree contribution      =     350.86305787 Ry
     xc contribution           =     -30.74351122 Ry
     ewald contribution        =     268.46058250 Ry

     total energy              =    -114.41514135 Ry
     Harris-Foulkes estimate   =    -114.41514138 Ry
     estimated scf accuracy    <          1.5E-09 Ry

     total magnetization       =     1.00 Bohr mag/cell
     absolute magnetization    =     1.57 Bohr mag/cell

     iteration # 29     ecut=    90.00 Ry     beta=0.70
     CG style diagonalization
     ethr =  4.14E-12,  avg # of iterations =  4.9
 
     Magnetic moment per site:
     atom:    1    charge:    0.8454    magn:   -0.0040    constr:    0.0000
     atom:    2    charge:    0.8456    magn:   -0.0040    constr:    0.0000
     atom:    3    charge:    0.8464    magn:   -0.0104    constr:    0.0000
     atom:    4    charge:    0.8446    magn:   -0.0097    constr:    0.0000
     atom:    5    charge:    0.8448    magn:   -0.0098    constr:    0.0000
     atom:    6    charge:    0.8464    magn:   -0.0104    constr:    0.0000
     atom:    7    charge:    0.4984    magn:    0.0002    constr:    0.0000
     atom:    8    charge:    0.4977    magn:    0.0002    constr:    0.0000
     atom:    9    charge:    0.4961    magn:    0.0004    constr:    0.0000
     atom:   10    charge:    0.4965    magn:    0.0004    constr:    0.0000
     atom:   11    charge:    0.4958    magn:    0.0004    constr:    0.0000
     atom:   12    charge:    0.4961    magn:    0.0004    constr:    0.0000
     atom:   13    charge:    5.8074    magn:    1.1328    constr:    0.0000

     total cpu time spent up to now is      141.6 secs

     The total energy is the sum of the following terms:

     one-electron contribution =    -702.99552425 Ry
     hartree contribution      =     350.86309365 Ry
     xc contribution           =     -30.74351284 Ry
     ewald contribution        =     268.46058250 Ry

     total energy              =    -114.41514139 Ry
     Harris-Foulkes estimate   =    -114.41514139 Ry
     estimated scf accuracy    <          3.1E-09 Ry

     total magnetization       =     1.00 Bohr mag/cell
     absolute magnetization    =     1.57 Bohr mag/cell

     iteration # 30     ecut=    90.00 Ry     beta=0.70
     CG style diagonalization
     ethr =  4.14E-12,  avg # of iterations =  3.5
 
     Magnetic moment per site:
     atom:    1    charge:    0.8454    magn:   -0.0040    constr:    0.0000
     atom:    2    charge:    0.8456    magn:   -0.0040    constr:    0.0000
     atom:    3    charge:    0.8464    magn:   -0.0104    constr:    0.0000
     atom:    4    charge:    0.8446    magn:   -0.0097    constr:    0.0000
     atom:    5    charge:    0.8448    magn:   -0.0098    constr:    0.0000
     atom:    6    charge:    0.8464    magn:   -0.0104    constr:    0.0000
     atom:    7    charge:    0.4984    magn:    0.0002    constr:    0.0000
     atom:    8    charge:    0.4977    magn:    0.0002    constr:    0.0000
     atom:    9    charge:    0.4961    magn:    0.0004    constr:    0.0000
     atom:   10    charge:    0.4965    magn:    0.0004    constr:    0.0000
     atom:   11    charge:    0.4958    magn:    0.0004    constr:    0.0000
     atom:   12    charge:    0.4961    magn:    0.0004    constr:    0.0000
     atom:   13    charge:    5.8074    magn:    1.1328    constr:    0.0000

     total cpu time spent up to now is      145.2 secs

     The total energy is the sum of the following terms:

     one-electron contribution =    -702.99536464 Ry
     hartree contribution      =     350.86306798 Ry
     xc contribution           =     -30.74351152 Ry
     ewald contribution        =     268.46058250 Ry

     total energy              =    -114.41514139 Ry
     Harris-Foulkes estimate   =    -114.41514139 Ry
     estimated scf accuracy    <          7.2E-10 Ry

     total magnetization       =     1.00 Bohr mag/cell
     absolute magnetization    =     1.57 Bohr mag/cell

     iteration # 31     ecut=    90.00 Ry     beta=0.70
     CG style diagonalization
     ethr =  1.95E-12,  avg # of iterations =  3.8
 
     Magnetic moment per site:
     atom:    1    charge:    0.8454    magn:   -0.0040    constr:    0.0000
     atom:    2    charge:    0.8456    magn:   -0.0040    constr:    0.0000
     atom:    3    charge:    0.8464    magn:   -0.0104    constr:    0.0000
     atom:    4    charge:    0.8446    magn:   -0.0097    constr:    0.0000
     atom:    5    charge:    0.8448    magn:   -0.0098    constr:    0.0000
     atom:    6    charge:    0.8464    magn:   -0.0104    constr:    0.0000
     atom:    7    charge:    0.4984    magn:    0.0002    constr:    0.0000
     atom:    8    charge:    0.4977    magn:    0.0002    constr:    0.0000
     atom:    9    charge:    0.4961    magn:    0.0004    constr:    0.0000
     atom:   10    charge:    0.4965    magn:    0.0004    constr:    0.0000
     atom:   11    charge:    0.4958    magn:    0.0004    constr:    0.0000
     atom:   12    charge:    0.4961    magn:    0.0004    constr:    0.0000
     atom:   13    charge:    5.8074    magn:    1.1329    constr:    0.0000

     total cpu time spent up to now is      148.9 secs

     End of self-consistent calculation

 ------ SPIN UP ------------


          k = 0.0000 0.0000 0.0000 (238961 PWs)   bands (ev):

   -25.3029 -22.5640 -22.5169 -19.5406 -18.9878 -18.9808 -17.1523 -15.4832
   -15.0335 -14.4977 -14.4617 -13.2081 -12.4820 -12.4810 -10.5314 -10.4744
    -8.0316  -6.7107  -6.6946  -5.3897  -5.3508  -4.6249  -3.9447  -3.9390
    -3.2897  -3.2801  -3.0291  -2.3161  -2.2208  -2.0515  -2.0366  -1.7626
    -1.7073  -0.7479  -0.7065  -0.6307  -0.6199  -0.3457  -0.2990  -0.1715

     occupation numbers 
     1.0000   1.0000   1.0000   1.0000   1.0000   1.0000   1.0000   1.0000
     1.0000   1.0000   1.0000   1.0000   1.0000   1.0000   1.0000   1.0000
     1.0000   1.0000   1.0000   0.0000   0.0000   0.0000   0.0000   0.0000
     0.0000   0.0000   0.0000   0.0000   0.0000   0.0000   0.0000   0.0000
     0.0000   0.0000   0.0000   0.0000   0.0000   0.0000   0.0000   0.0000

 ------ SPIN DOWN ----------


          k = 0.0000 0.0000 0.0000 (238961 PWs)   bands (ev):

   -25.3440 -22.6071 -22.5721 -19.0291 -19.0279 -17.9825 -17.1676 -15.5190
   -15.0524 -14.5080 -14.4755 -13.3136 -12.4975 -12.4948 -10.6435 -10.6213
    -6.1071  -6.0841  -5.4573  -5.4546  -5.3084  -4.6422  -3.9676  -3.9526
    -3.3153  -3.3040  -3.0591  -2.3181  -2.2473  -2.0915  -2.0720  -1.8508
    -1.7925  -0.7807  -0.7434  -0.6511  -0.6418  -0.3922  -0.3109  -0.1888

     occupation numbers 
     1.0000   1.0000   1.0000   1.0000   1.0000   1.0000   1.0000   1.0000
     1.0000   1.0000   1.0000   1.0000   1.0000   1.0000   1.0000   1.0000
     1.0000   1.0000   0.0000   0.0000   0.0000   0.0000   0.0000   0.0000
     0.0000   0.0000   0.0000   0.0000   0.0000   0.0000   0.0000   0.0000
     0.0000   0.0000   0.0000   0.0000   0.0000   0.0000   0.0000   0.0000

     highest occupied, lowest unoccupied level (ev):    -6.0841   -5.4573

     The total energy is the sum of the following terms:

     one-electron contribution =    -702.99531915 Ry
     hartree contribution      =     350.86310732 Ry
     xc contribution           =     -30.74351206 Ry
     ewald contribution        =     268.46058250 Ry

!    total energy              =    -114.41514139 Ry
     Harris-Foulkes estimate   =    -114.41514139 Ry
     estimated scf accuracy    <          9.3E-11 Ry

     The total energy is the sum of the following terms:

     one-electron contribution =    -702.99531915 Ry
     hartree contribution      =     350.86310732 Ry
     xc contribution           =     -30.74351206 Ry
     ewald contribution        =     268.46058250 Ry

     total magnetization       =     1.00 Bohr mag/cell
     absolute magnetization    =     1.57 Bohr mag/cell

     convergence has been achieved in  31 iterations
 
     Using Hirshfeld
        Amplitude [Ry a.u.] : -3.8779E-01
        Acceptor Fragment start :          13
        Acceptor Fragment end   :          13
        Donor Fragment start :           1
        Donor Fragment end   :          12
 
 
     Using Hirshfeld
        Amplitude [Ry a.u.] : -3.8779E-01
        Acceptor Fragment start :          13
        Acceptor Fragment end   :          13
        Donor Fragment start :           1
        Donor Fragment end   :          12
 
     E field correction              :  0.9304122656149318E+01 Ry    
 
     Donor charge                    :     -0.3449119210635736 e     
     Acceptor charge                 :      0.6477713769825639 e     
     Difference of charges           :     -0.9926832980461349 e     
 
     epcdft_thr                      :  0.1000000000000000E-03 e     
     Surplus(+)/deficit(-) charge    :  0.7316701953865135E-02 e     
 
     -----------------------------------------------
 
                      SCF converged but...
 
     electron localization condition NOT satisfied
     restarting scf with different applied potential
 
     New field Amp                   : -0.3887900000000000E+00 Ry    
     charge density from previous step
 
     Using Hirshfeld
        Amplitude [Ry a.u.] : -3.8879E-01
        Acceptor Fragment start :          13
        Acceptor Fragment end   :          13
        Donor Fragment start :           1
        Donor Fragment end   :          12
 

     total cpu time spent up to now is      158.5 secs

     per-process dynamical memory:    53.5 Mb

     Self-consistent Calculation

     iteration #  1     ecut=    90.00 Ry     beta=0.70
     CG style diagonalization
     ethr =  1.95E-12,  avg # of iterations = 18.2
 
     Magnetic moment per site:
     atom:    1    charge:    0.8458    magn:   -0.0044    constr:    0.0000
     atom:    2    charge:    0.8460    magn:   -0.0044    constr:    0.0000
     atom:    3    charge:    0.8469    magn:   -0.0108    constr:    0.0000
     atom:    4    charge:    0.8451    magn:   -0.0102    constr:    0.0000
     atom:    5    charge:    0.8453    magn:   -0.0102    constr:    0.0000
     atom:    6    charge:    0.8469    magn:   -0.0108    constr:    0.0000
     atom:    7    charge:    0.4984    magn:    0.0002    constr:    0.0000
     atom:    8    charge:    0.4977    magn:    0.0002    constr:    0.0000
     atom:    9    charge:    0.4961    magn:    0.0004    constr:    0.0000
     atom:   10    charge:    0.4965    magn:    0.0004    constr:    0.0000
     atom:   11    charge:    0.4958    magn:    0.0004    constr:    0.0000
     atom:   12    charge:    0.4961    magn:    0.0004    constr:    0.0000
     atom:   13    charge:    5.7919    magn:    1.1448    constr:    0.0000

     total cpu time spent up to now is      173.2 secs

     The total energy is the sum of the following terms:

     one-electron contribution =    -703.09130739 Ry
     hartree contribution      =     350.91189743 Ry
     xc contribution           =     -30.74178657 Ry
     ewald contribution        =     268.46058250 Ry

     total energy              =    -114.43890644 Ry
     Harris-Foulkes estimate   =    -114.43915815 Ry
     estimated scf accuracy    <       0.00031328 Ry

     total magnetization       =     1.00 Bohr mag/cell
     absolute magnetization    =     1.60 Bohr mag/cell

     iteration #  2     ecut=    90.00 Ry     beta=0.70
     CG style diagonalization
     ethr =  8.47E-07,  avg # of iterations =  4.1
 
     Magnetic moment per site:
     atom:    1    charge:    0.8455    magn:   -0.0041    constr:    0.0000
     atom:    2    charge:    0.8457    magn:   -0.0041    constr:    0.0000
     atom:    3    charge:    0.8464    magn:   -0.0105    constr:    0.0000
     atom:    4    charge:    0.8446    magn:   -0.0098    constr:    0.0000
     atom:    5    charge:    0.8448    magn:   -0.0099    constr:    0.0000
     atom:    6    charge:    0.8464    magn:   -0.0105    constr:    0.0000
     atom:    7    charge:    0.4984    magn:    0.0002    constr:    0.0000
     atom:    8    charge:    0.4977    magn:    0.0002    constr:    0.0000
     atom:    9    charge:    0.4961    magn:    0.0004    constr:    0.0000
     atom:   10    charge:    0.4965    magn:    0.0004    constr:    0.0000
     atom:   11    charge:    0.4958    magn:    0.0004    constr:    0.0000
     atom:   12    charge:    0.4961    magn:    0.0004    constr:    0.0000
     atom:   13    charge:    5.8051    magn:    1.1357    constr:    0.0000

     total cpu time spent up to now is      177.2 secs

     The total energy is the sum of the following terms:

     one-electron contribution =    -702.58833316 Ry
     hartree contribution      =     350.86708564 Ry
     xc contribution           =     -30.74312540 Ry
     ewald contribution        =     268.46058250 Ry

     total energy              =    -114.43828282 Ry
     Harris-Foulkes estimate   =    -114.44030937 Ry
     estimated scf accuracy    <       0.01241654 Ry

     total magnetization       =     1.00 Bohr mag/cell
     absolute magnetization    =     1.38 Bohr mag/cell

     iteration #  3     ecut=    90.00 Ry     beta=0.70
     CG style diagonalization
     ethr =  8.47E-07,  avg # of iterations =  4.0
 
     Magnetic moment per site:
     atom:    1    charge:    0.8454    magn:   -0.0041    constr:    0.0000
     atom:    2    charge:    0.8456    magn:   -0.0041    constr:    0.0000
     atom:    3    charge:    0.8464    magn:   -0.0105    constr:    0.0000
     atom:    4    charge:    0.8445    magn:   -0.0098    constr:    0.0000
     atom:    5    charge:    0.8448    magn:   -0.0099    constr:    0.0000
     atom:    6    charge:    0.8464    magn:   -0.0105    constr:    0.0000
     atom:    7    charge:    0.4984    magn:    0.0002    constr:    0.0000
     atom:    8    charge:    0.4977    magn:    0.0002    constr:    0.0000
     atom:    9    charge:    0.4962    magn:    0.0004    constr:    0.0000
     atom:   10    charge:    0.4965    magn:    0.0004    constr:    0.0000
     atom:   11    charge:    0.4958    magn:    0.0004    constr:    0.0000
     atom:   12    charge:    0.4962    magn:    0.0004    constr:    0.0000
     atom:   13    charge:    5.8054    magn:    1.1357    constr:    0.0000

     total cpu time spent up to now is      181.0 secs

     The total energy is the sum of the following terms:

     one-electron contribution =    -702.99801947 Ry
     hartree contribution      =     350.86288369 Ry
     xc contribution           =     -30.74284489 Ry
     ewald contribution        =     268.46058250 Ry

     total energy              =    -114.43913459 Ry
     Harris-Foulkes estimate   =    -114.43913657 Ry
     estimated scf accuracy    <       0.00001771 Ry

     total magnetization       =     1.00 Bohr mag/cell
     absolute magnetization    =     1.57 Bohr mag/cell

     iteration #  4     ecut=    90.00 Ry     beta=0.70
     CG style diagonalization
     ethr =  4.79E-08,  avg # of iterations =  3.8
 
     Magnetic moment per site:
     atom:    1    charge:    0.8454    magn:   -0.0041    constr:    0.0000
     atom:    2    charge:    0.8456    magn:   -0.0041    constr:    0.0000
     atom:    3    charge:    0.8464    magn:   -0.0105    constr:    0.0000
     atom:    4    charge:    0.8445    magn:   -0.0098    constr:    0.0000
     atom:    5    charge:    0.8448    magn:   -0.0099    constr:    0.0000
     atom:    6    charge:    0.8464    magn:   -0.0105    constr:    0.0000
     atom:    7    charge:    0.4984    magn:    0.0002    constr:    0.0000
     atom:    8    charge:    0.4977    magn:    0.0002    constr:    0.0000
     atom:    9    charge:    0.4961    magn:    0.0004    constr:    0.0000
     atom:   10    charge:    0.4965    magn:    0.0004    constr:    0.0000
     atom:   11    charge:    0.4958    magn:    0.0004    constr:    0.0000
     atom:   12    charge:    0.4961    magn:    0.0004    constr:    0.0000
     atom:   13    charge:    5.8055    magn:    1.1358    constr:    0.0000

     total cpu time spent up to now is      184.8 secs

     The total energy is the sum of the following terms:

     one-electron contribution =    -703.02306381 Ry
     hartree contribution      =     350.86510989 Ry
     xc contribution           =     -30.74307529 Ry
     ewald contribution        =     268.46058250 Ry

     total energy              =    -114.43913666 Ry
     Harris-Foulkes estimate   =    -114.43913679 Ry
     estimated scf accuracy    <       0.00000050 Ry

     total magnetization       =     1.00 Bohr mag/cell
     absolute magnetization    =     1.57 Bohr mag/cell

     iteration #  5     ecut=    90.00 Ry     beta=0.70
     CG style diagonalization
     ethr =  1.34E-09,  avg # of iterations =  4.7
 
     Magnetic moment per site:
     atom:    1    charge:    0.8454    magn:   -0.0041    constr:    0.0000
     atom:    2    charge:    0.8456    magn:   -0.0041    constr:    0.0000
     atom:    3    charge:    0.8464    magn:   -0.0105    constr:    0.0000
     atom:    4    charge:    0.8446    magn:   -0.0098    constr:    0.0000
     atom:    5    charge:    0.8448    magn:   -0.0099    constr:    0.0000
     atom:    6    charge:    0.8464    magn:   -0.0105    constr:    0.0000
     atom:    7    charge:    0.4984    magn:    0.0002    constr:    0.0000
     atom:    8    charge:    0.4977    magn:    0.0002    constr:    0.0000
     atom:    9    charge:    0.4961    magn:    0.0004    constr:    0.0000
     atom:   10    charge:    0.4965    magn:    0.0004    constr:    0.0000
     atom:   11    charge:    0.4958    magn:    0.0004    constr:    0.0000
     atom:   12    charge:    0.4961    magn:    0.0004    constr:    0.0000
     atom:   13    charge:    5.8055    magn:    1.1358    constr:    0.0000

     total cpu time spent up to now is      189.2 secs

     The total energy is the sum of the following terms:

     one-electron contribution =    -703.02711184 Ry
     hartree contribution      =     350.86644346 Ry
     xc contribution           =     -30.74317906 Ry
     ewald contribution        =     268.46058250 Ry

     total energy              =    -114.43913679 Ry
     Harris-Foulkes estimate   =    -114.43913684 Ry
     estimated scf accuracy    <       0.00000019 Ry

     total magnetization       =     1.00 Bohr mag/cell
     absolute magnetization    =     1.57 Bohr mag/cell

     iteration #  6     ecut=    90.00 Ry     beta=0.70
     CG style diagonalization
     ethr =  5.06E-10,  avg # of iterations =  3.1
 
     Magnetic moment per site:
     atom:    1    charge:    0.8454    magn:   -0.0041    constr:    0.0000
     atom:    2    charge:    0.8457    magn:   -0.0041    constr:    0.0000
     atom:    3    charge:    0.8464    magn:   -0.0105    constr:    0.0000
     atom:    4    charge:    0.8446    magn:   -0.0098    constr:    0.0000
     atom:    5    charge:    0.8448    magn:   -0.0099    constr:    0.0000
     atom:    6    charge:    0.8464    magn:   -0.0105    constr:    0.0000
     atom:    7    charge:    0.4984    magn:    0.0002    constr:    0.0000
     atom:    8    charge:    0.4977    magn:    0.0002    constr:    0.0000
     atom:    9    charge:    0.4961    magn:    0.0004    constr:    0.0000
     atom:   10    charge:    0.4965    magn:    0.0004    constr:    0.0000
     atom:   11    charge:    0.4958    magn:    0.0004    constr:    0.0000
[...]

     total magnetization       =     1.00 Bohr mag/cell
     absolute magnetization    =     1.59 Bohr mag/cell

     iteration #  2     ecut=    90.00 Ry     beta=0.70
     CG style diagonalization
     ethr =  9.46E-08,  avg # of iterations =  4.1
 
     Magnetic moment per site:
     atom:    1    charge:    0.8454    magn:   -0.0041    constr:    0.0000
     atom:    2    charge:    0.8457    magn:   -0.0041    constr:    0.0000
     atom:    3    charge:    0.8464    magn:   -0.0105    constr:    0.0000
     atom:    4    charge:    0.8446    magn:   -0.0099    constr:    0.0000
     atom:    5    charge:    0.8448    magn:   -0.0099    constr:    0.0000
     atom:    6    charge:    0.8464    magn:   -0.0105    constr:    0.0000
     atom:    7    charge:    0.4984    magn:    0.0002    constr:    0.0000
     atom:    8    charge:    0.4977    magn:    0.0002    constr:    0.0000
     atom:    9    charge:    0.4961    magn:    0.0004    constr:    0.0000
     atom:   10    charge:    0.4965    magn:    0.0004    constr:    0.0000
     atom:   11    charge:    0.4958    magn:    0.0004    constr:    0.0000
     atom:   12    charge:    0.4961    magn:    0.0004    constr:    0.0000
     atom:   13    charge:    5.8048    magn:    1.1369    constr:    0.0000

     total cpu time spent up to now is      236.4 secs

     The total energy is the sum of the following terms:

     one-electron contribution =    -702.86424318 Ry
     hartree contribution      =     350.86802241 Ry
     xc contribution           =     -30.74307981 Ry
     ewald contribution        =     268.46058250 Ry

     total energy              =    -114.44702448 Ry
     Harris-Foulkes estimate   =    -114.44728927 Ry
     estimated scf accuracy    <       0.00181736 Ry

     total magnetization       =     1.00 Bohr mag/cell
     absolute magnetization    =     1.50 Bohr mag/cell

     iteration #  3     ecut=    90.00 Ry     beta=0.70
     CG style diagonalization
     ethr =  9.46E-08,  avg # of iterations =  4.0
 
     Magnetic moment per site:
     atom:    1    charge:    0.8454    magn:   -0.0041    constr:    0.0000
     atom:    2    charge:    0.8457    magn:   -0.0041    constr:    0.0000
     atom:    3    charge:    0.8464    magn:   -0.0105    constr:    0.0000
     atom:    4    charge:    0.8446    magn:   -0.0099    constr:    0.0000
     atom:    5    charge:    0.8448    magn:   -0.0099    constr:    0.0000
     atom:    6    charge:    0.8464    magn:   -0.0105    constr:    0.0000
     atom:    7    charge:    0.4984    magn:    0.0002    constr:    0.0000
     atom:    8    charge:    0.4977    magn:    0.0002    constr:    0.0000
     atom:    9    charge:    0.4961    magn:    0.0004    constr:    0.0000
     atom:   10    charge:    0.4965    magn:    0.0004    constr:    0.0000
     atom:   11    charge:    0.4958    magn:    0.0004    constr:    0.0000
     atom:   12    charge:    0.4961    magn:    0.0004    constr:    0.0000
     atom:   13    charge:    5.8048    magn:    1.1370    constr:    0.0000

     total cpu time spent up to now is      240.2 secs

     The total energy is the sum of the following terms:

     one-electron contribution =    -703.02762160 Ry
     hartree contribution      =     350.86682086 Ry
     xc contribution           =     -30.74299147 Ry
     ewald contribution        =     268.46058250 Ry

     total energy              =    -114.44714587 Ry
     Harris-Foulkes estimate   =    -114.44714593 Ry
     estimated scf accuracy    <       0.00000037 Ry

     total magnetization       =     1.00 Bohr mag/cell
     absolute magnetization    =     1.58 Bohr mag/cell

     iteration #  4     ecut=    90.00 Ry     beta=0.70
     CG style diagonalization
     ethr =  1.01E-09,  avg # of iterations =  5.0
 
     Magnetic moment per site:
     atom:    1    charge:    0.8454    magn:   -0.0041    constr:    0.0000
     atom:    2    charge:    0.8457    magn:   -0.0041    constr:    0.0000
     atom:    3    charge:    0.8464    magn:   -0.0105    constr:    0.0000
     atom:    4    charge:    0.8446    magn:   -0.0099    constr:    0.0000
     atom:    5    charge:    0.8448    magn:   -0.0099    constr:    0.0000
     atom:    6    charge:    0.8464    magn:   -0.0105    constr:    0.0000
     atom:    7    charge:    0.4984    magn:    0.0002    constr:    0.0000
     atom:    8    charge:    0.4977    magn:    0.0002    constr:    0.0000
     atom:    9    charge:    0.4961    magn:    0.0004    constr:    0.0000
     atom:   10    charge:    0.4965    magn:    0.0004    constr:    0.0000
     atom:   11    charge:    0.4958    magn:    0.0004    constr:    0.0000
     atom:   12    charge:    0.4961    magn:    0.0004    constr:    0.0000
     atom:   13    charge:    5.8049    magn:    1.1370    constr:    0.0000

     total cpu time spent up to now is      244.8 secs

     The total energy is the sum of the following terms:

     one-electron contribution =    -703.03523805 Ry
     hartree contribution      =     350.86787860 Ry
     xc contribution           =     -30.74309027 Ry
     ewald contribution        =     268.46058250 Ry

     total energy              =    -114.44714605 Ry
     Harris-Foulkes estimate   =    -114.44714607 Ry
     estimated scf accuracy    <       0.00000006 Ry

     total magnetization       =     1.00 Bohr mag/cell
     absolute magnetization    =     1.58 Bohr mag/cell

     iteration #  5     ecut=    90.00 Ry     beta=0.70
     CG style diagonalization
     ethr =  1.70E-10,  avg # of iterations =  3.5
 
     Magnetic moment per site:
     atom:    1    charge:    0.8454    magn:   -0.0041    constr:    0.0000
     atom:    2    charge:    0.8457    magn:   -0.0041    constr:    0.0000
     atom:    3    charge:    0.8464    magn:   -0.0105    constr:    0.0000
     atom:    4    charge:    0.8446    magn:   -0.0099    constr:    0.0000
     atom:    5    charge:    0.8448    magn:   -0.0099    constr:    0.0000
     atom:    6    charge:    0.8464    magn:   -0.0105    constr:    0.0000
     atom:    7    charge:    0.4984    magn:    0.0002    constr:    0.0000
     atom:    8    charge:    0.4977    magn:    0.0002    constr:    0.0000
     atom:    9    charge:    0.4961    magn:    0.0004    constr:    0.0000
     atom:   10    charge:    0.4965    magn:    0.0004    constr:    0.0000
     atom:   11    charge:    0.4958    magn:    0.0004    constr:    0.0000
     atom:   12    charge:    0.4961    magn:    0.0004    constr:    0.0000
     atom:   13    charge:    5.8048    magn:    1.1371    constr:    0.0000

     total cpu time spent up to now is      248.4 secs

     The total energy is the sum of the following terms:

     one-electron contribution =    -703.03422560 Ry
     hartree contribution      =     350.86816614 Ry
     xc contribution           =     -30.74311606 Ry
     ewald contribution        =     268.46058250 Ry

     total energy              =    -114.44714605 Ry
     Harris-Foulkes estimate   =    -114.44714605 Ry
     estimated scf accuracy    <       0.00000002 Ry

     total magnetization       =     1.00 Bohr mag/cell
     absolute magnetization    =     1.58 Bohr mag/cell

     iteration #  6     ecut=    90.00 Ry     beta=0.70
     CG style diagonalization
     ethr =  6.61E-11,  avg # of iterations =  3.0
 
     Magnetic moment per site:
     atom:    1    charge:    0.8454    magn:   -0.0041    constr:    0.0000
     atom:    2    charge:    0.8457    magn:   -0.0041    constr:    0.0000
     atom:    3    charge:    0.8464    magn:   -0.0105    constr:    0.0000
     atom:    4    charge:    0.8446    magn:   -0.0099    constr:    0.0000
     atom:    5    charge:    0.8448    magn:   -0.0099    constr:    0.0000
     atom:    6    charge:    0.8464    magn:   -0.0105    constr:    0.0000
     atom:    7    charge:    0.4984    magn:    0.0002    constr:    0.0000
     atom:    8    charge:    0.4977    magn:    0.0002    constr:    0.0000
     atom:    9    charge:    0.4961    magn:    0.0004    constr:    0.0000
     atom:   10    charge:    0.4965    magn:    0.0004    constr:    0.0000
     atom:   11    charge:    0.4958    magn:    0.0004    constr:    0.0000
     atom:   12    charge:    0.4961    magn:    0.0004    constr:    0.0000
     atom:   13    charge:    5.8048    magn:    1.1371    constr:    0.0000

     total cpu time spent up to now is      251.6 secs

     The total energy is the sum of the following terms:

     one-electron contribution =    -703.03366597 Ry
     hartree contribution      =     350.86834076 Ry
     xc contribution           =     -30.74312879 Ry
     ewald contribution        =     268.46058250 Ry

     total energy              =    -114.44714605 Ry
     Harris-Foulkes estimate   =    -114.44714605 Ry
     estimated scf accuracy    <       0.00000001 Ry

     total magnetization       =     1.00 Bohr mag/cell
     absolute magnetization    =     1.58 Bohr mag/cell

     iteration #  7     ecut=    90.00 Ry     beta=0.70
     CG style diagonalization
     ethr =  3.13E-11,  avg # of iterations =  3.2
 
     Magnetic moment per site:
     atom:    1    charge:    0.8454    magn:   -0.0041    constr:    0.0000
     atom:    2    charge:    0.8457    magn:   -0.0041    constr:    0.0000
     atom:    3    charge:    0.8464    magn:   -0.0105    constr:    0.0000
     atom:    4    charge:    0.8446    magn:   -0.0099    constr:    0.0000
     atom:    5    charge:    0.8448    magn:   -0.0099    constr:    0.0000
     atom:    6    charge:    0.8464    magn:   -0.0105    constr:    0.0000
     atom:    7    charge:    0.4984    magn:    0.0002    constr:    0.0000
     atom:    8    charge:    0.4977    magn:    0.0002    constr:    0.0000
     atom:    9    charge:    0.4961    magn:    0.0004    constr:    0.0000
     atom:   10    charge:    0.4965    magn:    0.0004    constr:    0.0000
     atom:   11    charge:    0.4958    magn:    0.0004    constr:    0.0000
     atom:   12    charge:    0.4961    magn:    0.0004    constr:    0.0000
     atom:   13    charge:    5.8048    magn:    1.1372    constr:    0.0000

     total cpu time spent up to now is      254.9 secs

     The total energy is the sum of the following terms:

     one-electron contribution =    -703.03307883 Ry
     hartree contribution      =     350.86832357 Ry
     xc contribution           =     -30.74312528 Ry
     ewald contribution        =     268.46058250 Ry

     total energy              =    -114.44714605 Ry
     Harris-Foulkes estimate   =    -114.44714605 Ry
     estimated scf accuracy    <          7.1E-10 Ry

     total magnetization       =     1.00 Bohr mag/cell
     absolute magnetization    =     1.58 Bohr mag/cell

     iteration #  8     ecut=    90.00 Ry     beta=0.70
     CG style diagonalization
     ethr =  1.91E-12,  avg # of iterations =  4.8
 
     Magnetic moment per site:
     atom:    1    charge:    0.8454    magn:   -0.0041    constr:    0.0000
     atom:    2    charge:    0.8457    magn:   -0.0041    constr:    0.0000
     atom:    3    charge:    0.8464    magn:   -0.0105    constr:    0.0000
     atom:    4    charge:    0.8446    magn:   -0.0099    constr:    0.0000
     atom:    5    charge:    0.8448    magn:   -0.0099    constr:    0.0000
     atom:    6    charge:    0.8464    magn:   -0.0105    constr:    0.0000
     atom:    7    charge:    0.4984    magn:    0.0002    constr:    0.0000
     atom:    8    charge:    0.4977    magn:    0.0002    constr:    0.0000
     atom:    9    charge:    0.4961    magn:    0.0004    constr:    0.0000
     atom:   10    charge:    0.4965    magn:    0.0004    constr:    0.0000
     atom:   11    charge:    0.4958    magn:    0.0004    constr:    0.0000
     atom:   12    charge:    0.4961    magn:    0.0004    constr:    0.0000
     atom:   13    charge:    5.8048    magn:    1.1372    constr:    0.0000

     total cpu time spent up to now is      259.3 secs

     The total energy is the sum of the following terms:

     one-electron contribution =    -703.03294305 Ry
     hartree contribution      =     350.86830500 Ry
     xc contribution           =     -30.74312356 Ry
     ewald contribution        =     268.46058250 Ry

     total energy              =    -114.44714605 Ry
     Harris-Foulkes estimate   =    -114.44714605 Ry
     estimated scf accuracy    <          3.0E-10 Ry

     total magnetization       =     1.00 Bohr mag/cell
     absolute magnetization    =     1.58 Bohr mag/cell

     iteration #  9     ecut=    90.00 Ry     beta=0.70
     CG style diagonalization
     ethr =  8.12E-13,  avg # of iterations =  3.2
 
     Magnetic moment per site:
     atom:    1    charge:    0.8454    magn:   -0.0041    constr:    0.0000
     atom:    2    charge:    0.8457    magn:   -0.0041    constr:    0.0000
     atom:    3    charge:    0.8464    magn:   -0.0105    constr:    0.0000
     atom:    4    charge:    0.8446    magn:   -0.0099    constr:    0.0000
     atom:    5    charge:    0.8448    magn:   -0.0099    constr:    0.0000
     atom:    6    charge:    0.8464    magn:   -0.0105    constr:    0.0000
     atom:    7    charge:    0.4984    magn:    0.0002    constr:    0.0000
     atom:    8    charge:    0.4977    magn:    0.0002    constr:    0.0000
     atom:    9    charge:    0.4961    magn:    0.0004    constr:    0.0000
     atom:   10    charge:    0.4965    magn:    0.0004    constr:    0.0000
     atom:   11    charge:    0.4958    magn:    0.0004    constr:    0.0000
     atom:   12    charge:    0.4961    magn:    0.0004    constr:    0.0000
     atom:   13    charge:    5.8048    magn:    1.1372    constr:    0.0000

     total cpu time spent up to now is      262.6 secs

     End of self-consistent calculation

 ------ SPIN UP ------------


          k = 0.0000 0.0000 0.0000 (238961 PWs)   bands (ev):

   -25.3119 -22.5731 -22.5258 -19.5541 -18.9970 -18.9902 -17.1623 -15.4932
   -15.0425 -14.5077 -14.4716 -13.2170 -12.4917 -12.4907 -10.5401 -10.4832
    -8.0409  -6.7232  -6.7063  -5.3989  -5.3600  -4.6381  -3.9580  -3.9523
    -3.3030  -3.2933  -3.0406  -2.3282  -2.2340  -2.0647  -2.0485  -1.7742
    -1.7170  -0.7593  -0.7180  -0.6433  -0.6324  -0.3565  -0.3094  -0.1777

     occupation numbers 
     1.0000   1.0000   1.0000   1.0000   1.0000   1.0000   1.0000   1.0000
     1.0000   1.0000   1.0000   1.0000   1.0000   1.0000   1.0000   1.0000
     1.0000   1.0000   1.0000   0.0000   0.0000   0.0000   0.0000   0.0000
     0.0000   0.0000   0.0000   0.0000   0.0000   0.0000   0.0000   0.0000
     0.0000   0.0000   0.0000   0.0000   0.0000   0.0000   0.0000   0.0000

 ------ SPIN DOWN ----------


          k = 0.0000 0.0000 0.0000 (238961 PWs)   bands (ev):

   -25.3537 -22.6170 -22.5820 -19.0391 -19.0379 -17.9907 -17.1779 -15.5296
   -15.0618 -14.5181 -14.4857 -13.3244 -12.5075 -12.5048 -10.6545 -10.6323
    -6.1146  -6.0912  -5.4675  -5.4653  -5.3154  -4.6556  -3.9812  -3.9661
    -3.3290  -3.3176  -3.0712  -2.3308  -2.2609  -2.1043  -2.0855  -1.8628
    -1.8047  -0.7929  -0.7556  -0.6641  -0.6547  -0.4037  -0.3218  -0.1956

     occupation numbers 
     1.0000   1.0000   1.0000   1.0000   1.0000   1.0000   1.0000   1.0000
     1.0000   1.0000   1.0000   1.0000   1.0000   1.0000   1.0000   1.0000
     1.0000   1.0000   0.0000   0.0000   0.0000   0.0000   0.0000   0.0000
     0.0000   0.0000   0.0000   0.0000   0.0000   0.0000   0.0000   0.0000
     0.0000   0.0000   0.0000   0.0000   0.0000   0.0000   0.0000   0.0000

     highest occupied, lowest unoccupied level (ev):    -6.0912   -5.4675

     The total energy is the sum of the following terms:

     one-electron contribution =    -703.03292369 Ry
     hartree contribution      =     350.86831668 Ry
     xc contribution           =     -30.74312154 Ry
     ewald contribution        =     268.46058250 Ry

!    total energy              =    -114.44714605 Ry
     Harris-Foulkes estimate   =    -114.44714605 Ry
     estimated scf accuracy    <          5.7E-11 Ry

     The total energy is the sum of the following terms:

     one-electron contribution =    -703.03292369 Ry
     hartree contribution      =     350.86831668 Ry
     xc contribution           =     -30.74312154 Ry
     ewald contribution        =     268.46058250 Ry

     total magnetization       =     1.00 Bohr mag/cell
     absolute magnetization    =     1.58 Bohr mag/cell

     convergence has been achieved in   9 iterations
 
     Using Hirshfeld
        Amplitude [Ry a.u.] : -3.8912E-01
        Acceptor Fragment start :          13
        Acceptor Fragment end   :          13
        Donor Fragment start :           1
        Donor Fragment end   :          12
 
 
     Using Hirshfeld
        Amplitude [Ry a.u.] : -3.8912E-01
        Acceptor Fragment start :          13
        Acceptor Fragment end   :          13
        Donor Fragment start :           1
        Donor Fragment end   :          12
 
     E field correction              :  0.9338985037218654E+01 Ry    
 
     Donor charge                    :     -0.3486459024894017 e     
     Acceptor charge                 :      0.6513939123170962 e     
     Difference of charges           :     -1.0000398148064988 e     

     Writing output data file right.save
 
     init_run     :     17.86s CPU     17.86s WALL (       1 calls)
     electrons    :    235.54s CPU    235.54s WALL (       3 calls)
     update_pot   :      1.15s CPU      1.15s WALL (       2 calls)

     Called by init_run:
     wfcinit      :      5.05s CPU      5.05s WALL (       1 calls)
     potinit      :      1.04s CPU      1.04s WALL (       1 calls)

     Called by electrons:
     c_bands      :    154.26s CPU    154.26s WALL (      51 calls)
     sum_band     :     11.18s CPU     11.18s WALL (      51 calls)
     v_of_rho     :     29.59s CPU     29.59s WALL (      54 calls)
     v_h          :      0.37s CPU      0.37s WALL (      54 calls)
     v_xc         :     29.22s CPU     29.22s WALL (      54 calls)
     mix_rho      :      1.02s CPU      1.02s WALL (      51 calls)

     Called by c_bands:
     init_us_2    :      0.36s CPU      0.36s WALL (     206 calls)
     rcgdiagg     :    124.26s CPU    124.26s WALL (     106 calls)
     wfcrot       :     31.17s CPU     31.17s WALL (     102 calls)

     Called by sum_band:

     Called by *cgdiagg:
     h_psi        :    130.75s CPU    130.75s WALL (   14801 calls)
     rdiaghg      :      7.34s CPU      7.34s WALL (     102 calls)
     rdiaghg:chol :      0.56s CPU      0.56s WALL (     102 calls)
     rdiaghg:inve :      0.10s CPU      0.10s WALL (     102 calls)
     rdiaghg:para :      0.55s CPU      0.55s WALL (     204 calls)

     Called by h_psi:
     h_psi:vloc   :    116.17s CPU    116.17s WALL (   14801 calls)
     h_psi:vnl    :     14.37s CPU     14.37s WALL (   14801 calls)
     add_vuspsi   :      9.23s CPU      9.24s WALL (   14801 calls)

     General routines
     calbec       :      7.43s CPU      7.46s WALL (   29500 calls)
     fft          :     15.76s CPU     15.76s WALL (    2996 calls)
     fftw         :    111.34s CPU    111.36s WALL (   35854 calls)
 
     Parallel routines
     fft_scatter  :     56.11s CPU     56.11s WALL (   38850 calls)
 
     PWSCF        :  4m52.84s CPU     4m52.84s WALL

 
   This run was terminated on:  19:21:54  22Aug2015            

=------------------------------------------------------------------------------=
   JOB DONE.
=------------------------------------------------------------------------------=
2015-08-22 19:22:11.521 (INFO ) [0xfff7e41c410] CET-20440-31771-128:1295527:ibm.runjob.client.Job: exited with status 0
2015-08-22 19:22:11.522 (INFO ) [0xfff7e41c410] tatu.runjob.client: task exited with status 0
2015-08-22 19:22:11.522 (INFO ) [0xfff801634e0] 40943:tatu.runjob.monitor: monitor terminating
2015-08-22 19:22:11.526 (INFO ) [0xfff7e41c410] tatu.runjob.client: monitor completed
