2015-08-20 16:05:18.709 (INFO ) [0xfff97dbc410] ibm.runjob.AbstractOptions: using properties file /bgsys/local/etc/bg.properties
2015-08-20 16:05:18.720 (INFO ) [0xfff97dbc410] ibm.runjob.AbstractOptions: max open file descriptors: 65536
2015-08-20 16:05:18.721 (INFO ) [0xfff97dbc410] ibm.runjob.AbstractOptions: core file limit: 18446744073709551615
2015-08-20 16:05:18.723 (INFO ) [0xfff97dbc410] 17612:tatu.runjob.client: scheduler job id is 565150
2015-08-20 16:05:18.730 (INFO ) [0xfff8aac34e0] 17612:tatu.runjob.monitor: monitor started
2015-08-20 16:05:22.810 (INFO ) [0xfff8aac34e0] 17612:tatu.runjob.monitor: task record 1233416 created
2015-08-20 16:05:22.812 (INFO ) [0xfff97dbc410] CET-02440-13771-128:17612:ibm.runjob.client.options.Parser: set local socket to runjob_mux from properties file
2015-08-20 16:05:25.661 (INFO ) [0xfff97dbc410] CET-02440-13771-128:1292208:ibm.runjob.client.Job: job 1292208 started

     Program PWSCF v.5.1.1 starts on 20Aug2015 at 16: 5:25 

     This program is part of the open-source Quantum ESPRESSO suite
     for quantum simulation of materials; please cite
         "P. Giannozzi et al., J. Phys.:Condens. Matter 21 395502 (2009);
          URL http://www.quantum-espresso.org", 
     in publications or presentations arising from this work. More details at
     http://www.quantum-espresso.org/quote

     Parallel version (MPI & OpenMP), running on    1024 processor cores
     Number of MPI processes:              1024
     Threads/MPI process:                     1
     R & G space division:  proc/nbgrp/npool/nimage =    1024
     Waiting for input...
     Reading input from standard input

     Current dimensions of program PWSCF are:
     Max number of different atomic species (ntypx) = 10
     Max number of k-points (npk) =  40000
     Max angular momentum in pseudopotentials (lmaxx) =  3
               file C.pbe-mt_fhi.UPF: wavefunction(s)  4f renormalized
               file H.pbe-mt_fhi.UPF: wavefunction(s)  2p 4f renormalized
               file Cl.pbe-mt_fhi.UPF: wavefunction(s)  4f renormalized

     gamma-point specific algorithms are used
     Message from routine setup:
     the system is metallic, specify occupations

     Subspace diagonalization in iterative solution of the eigenvalue problem:
     scalapack distributed-memory algorithm (size of sub-group: 22* 22 procs)

 
     Parallelization info
     --------------------
     sticks:   dense  smooth     PW     G-vecs:    dense   smooth      PW
     Min          82      82     20                18258    18258    2268
     Max          84      84     22                18316    18316    2314
     Sum       85225   85225  21329             18723953 18723953 2340509
     Tot       42613   42613  10665
 
     Generating pointlists ...
     new r_m :   0.0179 (alat units)  0.8450 (a.u.) for type    1
     new r_m :   0.0179 (alat units)  0.8450 (a.u.) for type    2
     new r_m :   0.0508 (alat units)  2.4011 (a.u.) for type    3
2015-08-20 16:05:32.455 (INFO ) [0xfff8aac34e0] 17612:tatu.runjob.monitor: tracklib completed


     bravais-lattice index     =            1
     lattice parameter (alat)  =      47.2432  a.u.
     unit-cell volume          =  105442.7279 (a.u.)^3
     number of atoms/cell      =           13
     number of atomic types    =            3
     number of electrons       =        37.00 (up:  19.00, down:  18.00)
     number of Kohn-Sham states=           40
     kinetic-energy cutoff     =     120.0000  Ry
     charge density cutoff     =     480.0000  Ry
     convergence threshold     =      1.0E-07
     mixing beta               =       0.7000
     number of iterations used =            8  plain     mixing
     Exchange-correlation      = PBE ( 1  4  3  4 0 0)
     Assuming isolated system, Martyna-Tuckerman method


     celldm(1)=  47.243153  celldm(2)=   0.000000  celldm(3)=   0.000000
     celldm(4)=   0.000000  celldm(5)=   0.000000  celldm(6)=   0.000000

     crystal axes: (cart. coord. in units of alat)
               a(1) = (   1.000000   0.000000   0.000000 )  
               a(2) = (   0.000000   1.000000   0.000000 )  
               a(3) = (   0.000000   0.000000   1.000000 )  

     reciprocal axes: (cart. coord. in units 2 pi/alat)
               b(1) = (  1.000000  0.000000  0.000000 )  
               b(2) = (  0.000000  1.000000  0.000000 )  
               b(3) = (  0.000000  0.000000  1.000000 )  


     PseudoPot. # 1 for  C read from file:
     ./C.pbe-mt_fhi.UPF
     MD5 check sum: 058ca341f9d6d5327d9962fd88a91b65
     Pseudo is Norm-conserving, Zval =  4.0
     Generated using FHI98PP, converted with fhi2upf.x v.5.0.2
     Using radial grid of  461 points,  3 beta functions with: 
                l(1) =   0
                l(2) =   1
                l(3) =   3

     PseudoPot. # 2 for  H read from file:
     ./H.pbe-mt_fhi.UPF
     MD5 check sum: a19bd5488733b3d98581df861506e80d
     Pseudo is Norm-conserving, Zval =  1.0
     Generated using FHI98PP, converted with fhi2upf.x v.5.0.2
     Using radial grid of  387 points,  3 beta functions with: 
                l(1) =   0
                l(2) =   1
                l(3) =   3

     PseudoPot. # 3 for Cl read from file:
     ./Cl.pbe-mt_fhi.UPF
     MD5 check sum: 2690b95bbfe21454a1a3af22474751ef
     Pseudo is Norm-conserving, Zval =  7.0
     Generated using FHI98PP, converted with fhi2upf.x v.5.0.2
     Using radial grid of  503 points,  3 beta functions with: 
                l(1) =   0
                l(2) =   1
                l(3) =   3

     atomic species   valence    mass     pseudopotential
        C              4.00    12.01070      C( 1.00)
        H              1.00     1.00794      H( 1.00)
        Cl             7.00     1.00000     Cl( 1.00)

     Starting magnetic structure 
     atomic species   magnetization
        C            0.000
        H            0.000
        Cl           0.000

     No symmetry found


                                    s                        frac. trans.

      isym =  1     identity                                     

 cryst.   s( 1) = (     1          0          0      )
                  (     0          1          0      )
                  (     0          0          1      )

 cart.    s( 1) = (  1.0000000  0.0000000  0.0000000 )
                  (  0.0000000  1.0000000  0.0000000 )
                  (  0.0000000  0.0000000  1.0000000 )


     point group C_1 (1)    
     there are  1 classes
     the character table:

       E    
A      1.00

     the symmetry operations in each class:
     E        1

   Cartesian axes

     site n.     atom                  positions (alat units)
         1           C   tau(   1) = (   0.0000000   0.0558800   0.0000000  )
         2           C   tau(   2) = (   0.0483920   0.0279400   0.0000000  )
         3           C   tau(   3) = (   0.0483920  -0.0279400   0.0000000  )
         4           C   tau(   4) = (   0.0000000  -0.0558800   0.0000000  )
         5           C   tau(   5) = (  -0.0483920  -0.0279400   0.0000000  )
         6           C   tau(   6) = (  -0.0483920   0.0279400   0.0000000  )
         7           H   tau(   7) = (   0.0000000   0.0992400   0.0000000  )
         8           H   tau(   8) = (   0.0859440   0.0496200   0.0000000  )
         9           H   tau(   9) = (   0.0859440  -0.0496200   0.0000000  )
        10           H   tau(  10) = (   0.0000000  -0.0992400   0.0000000  )
        11           H   tau(  11) = (  -0.0859440  -0.0496200   0.0000000  )
        12           H   tau(  12) = (  -0.0859440   0.0496200   0.0000000  )
        13           Cl  tau(  13) = (   0.0241960   0.0419100   0.1200000  )

   Crystallographic axes

     site n.     atom                  positions (cryst. coord.)
         1           C   tau(   1) = (  0.0000000  0.0558800  0.0000000  )
         2           C   tau(   2) = (  0.0483920  0.0279400  0.0000000  )
         3           C   tau(   3) = (  0.0483920 -0.0279400  0.0000000  )
         4           C   tau(   4) = (  0.0000000 -0.0558800  0.0000000  )
         5           C   tau(   5) = ( -0.0483920 -0.0279400  0.0000000  )
         6           C   tau(   6) = ( -0.0483920  0.0279400  0.0000000  )
         7           H   tau(   7) = (  0.0000000  0.0992400  0.0000000  )
         8           H   tau(   8) = (  0.0859440  0.0496200  0.0000000  )
         9           H   tau(   9) = (  0.0859440 -0.0496200  0.0000000  )
        10           H   tau(  10) = (  0.0000000 -0.0992400  0.0000000  )
        11           H   tau(  11) = ( -0.0859440 -0.0496200  0.0000000  )
        12           H   tau(  12) = ( -0.0859440  0.0496200  0.0000000  )
        13           Cl  tau(  13) = (  0.0241960  0.0419100  0.1200000  )

     number of k points=     2
                       cart. coord. in units 2pi/alat
        k(    1) = (   0.0000000   0.0000000   0.0000000), wk =   1.0000000
        k(    2) = (   0.0000000   0.0000000   0.0000000), wk =   1.0000000

                       cryst. coord.
        k(    1) = (   0.0000000   0.0000000   0.0000000), wk =   1.0000000
        k(    2) = (   0.0000000   0.0000000   0.0000000), wk =   1.0000000

     Dense  grid:  9361977 G-vectors     FFT dimensions: ( 336, 336, 336)

     Largest allocated arrays     est. size (Mb)     dimensions
        Kohn-Sham Wavefunctions         0.70 Mb     (    1155,   40)
        NL pseudopotentials             2.52 Mb     (    1155,  143)
        Each V/rho on FFT grid          3.45 Mb     (  112896,   2)
        Each G-vector array             0.07 Mb     (    9154)
        G-vector shells                 0.03 Mb     (    3928)
     Largest temporary arrays     est. size (Mb)     dimensions
        Each subspace H/S matrix        0.00 Mb     (       1,    1)
        Each <psi_i|beta_j> matrix      0.04 Mb     (     143,   40)
        Arrays for rho mixing          13.78 Mb     (  112896,    8)
 
     Using Hirshfeld
        Amplitude [Ry a.u.] : -3.8778E-01
        Acceptor Fragment start :          13
        Acceptor Fragment end   :          13
        Donor Fragment start :           1
        Donor Fragment end   :          12
 

     Initial potential from superposition of free atoms
     Check: negative starting charge=(component1):   -0.004245
     Check: negative starting charge=(component2):   -0.004245

     starting charge   36.99968, renormalised to   37.00000

     negative rho (up, down):  4.245E-03 4.245E-03
     Starting wfc are  208 randomized atomic wfcs

     total cpu time spent up to now is       73.5 secs

     per-process dynamical memory:    73.7 Mb

     Self-consistent Calculation

     iteration #  1     ecut=   120.00 Ry     beta=0.70
     CG style diagonalization
     ethr =  1.00E-02,  avg # of iterations =  4.5

     negative rho (up, down):  1.079E-03 1.102E-03
 
     Magnetic moment per site:
     atom:    1    charge:    1.0221    magn:    0.0318    constr:    0.0000
     atom:    2    charge:    1.0235    magn:    0.0316    constr:    0.0000
     atom:    3    charge:    1.0216    magn:    0.0309    constr:    0.0000
     atom:    4    charge:    1.0197    magn:    0.0302    constr:    0.0000
     atom:    5    charge:    1.0214    magn:    0.0301    constr:    0.0000
     atom:    6    charge:    1.0219    magn:    0.0307    constr:    0.0000
     atom:    7    charge:    0.4450    magn:    0.0012    constr:    0.0000
     atom:    8    charge:    0.4447    magn:    0.0011    constr:    0.0000
     atom:    9    charge:    0.4443    magn:    0.0012    constr:    0.0000
     atom:   10    charge:    0.4445    magn:    0.0012    constr:    0.0000
     atom:   11    charge:    0.4442    magn:    0.0012    constr:    0.0000
     atom:   12    charge:    0.4445    magn:    0.0012    constr:    0.0000
     atom:   13    charge:    3.1678    magn:    0.0006    constr:    0.0000

     total cpu time spent up to now is       87.7 secs

     The total energy is the sum of the following terms:

     one-electron contribution =    -729.33178499 Ry
     hartree contribution      =     372.47587953 Ry
     xc contribution           =     -31.49764938 Ry
     ewald contribution        =     268.46058250 Ry

     total energy              =    -103.21363907 Ry
     Harris-Foulkes estimate   =    -117.32283191 Ry
     estimated scf accuracy    <      16.80509154 Ry

     total magnetization       =     1.00 Bohr mag/cell
     absolute magnetization    =     1.00 Bohr mag/cell

     iteration #  2     ecut=   120.00 Ry     beta=0.70
     CG style diagonalization
     ethr =  1.00E-02,  avg # of iterations =  9.5

     negative rho (up, down):  5.945E-04 6.156E-04
 
     Magnetic moment per site:
     atom:    1    charge:    0.8965    magn:    0.0281    constr:    0.0000
     atom:    2    charge:    0.8978    magn:    0.0281    constr:    0.0000
     atom:    3    charge:    0.8897    magn:    0.0269    constr:    0.0000
     atom:    4    charge:    0.8852    magn:    0.0258    constr:    0.0000
     atom:    5    charge:    0.8867    magn:    0.0257    constr:    0.0000
     atom:    6    charge:    0.8898    magn:    0.0266    constr:    0.0000
     atom:    7    charge:    0.4436    magn:    0.0032    constr:    0.0000
     atom:    8    charge:    0.4432    magn:    0.0036    constr:    0.0000
     atom:    9    charge:    0.4341    magn:    0.0015    constr:    0.0000
     atom:   10    charge:    0.4311    magn:    0.0012    constr:    0.0000
     atom:   11    charge:    0.4309    magn:    0.0011    constr:    0.0000
     atom:   12    charge:    0.4340    magn:    0.0014    constr:    0.0000
     atom:   13    charge:    5.4204    magn:    0.0073    constr:    0.0000

     total cpu time spent up to now is      109.9 secs

     The total energy is the sum of the following terms:

     one-electron contribution =    -567.22599374 Ry
     hartree contribution      =     347.06087786 Ry
     xc contribution           =     -30.23699366 Ry
     ewald contribution        =     268.46058250 Ry

     total energy              =     -87.23482887 Ry
     Harris-Foulkes estimate   =    -140.71357111 Ry
     estimated scf accuracy    <     196.75758728 Ry

     total magnetization       =     1.00 Bohr mag/cell
     absolute magnetization    =     1.14 Bohr mag/cell

     iteration #  3     ecut=   120.00 Ry     beta=0.70
     CG style diagonalization
     ethr =  1.00E-02,  avg # of iterations =  9.7

     negative rho (up, down):  3.360E-04 3.713E-04
 
     Magnetic moment per site:
     atom:    1    charge:    0.8742    magn:    0.0167    constr:    0.0000
     atom:    2    charge:    0.8761    magn:    0.0170    constr:    0.0000
     atom:    3    charge:    0.8758    magn:    0.0200    constr:    0.0000
     atom:    4    charge:    0.8724    magn:    0.0183    constr:    0.0000
     atom:    5    charge:    0.8743    magn:    0.0171    constr:    0.0000
     atom:    6    charge:    0.8725    magn:    0.0185    constr:    0.0000
     atom:    7    charge:    0.4622    magn:    0.0021    constr:    0.0000
     atom:    8    charge:    0.4622    magn:    0.0025    constr:    0.0000
     atom:    9    charge:    0.4590    magn:   -0.0003    constr:    0.0000
     atom:   10    charge:    0.4585    magn:    0.0006    constr:    0.0000
     atom:   11    charge:    0.4584    magn:    0.0002    constr:    0.0000
     atom:   12    charge:    0.4598    magn:    0.0001    constr:    0.0000
     atom:   13    charge:    5.6224    magn:    0.3006    constr:    0.0000

     total cpu time spent up to now is      132.6 secs

     The total energy is the sum of the following terms:

     one-electron contribution =    -702.57179865 Ry
     hartree contribution      =     349.29761826 Ry
     xc contribution           =     -30.48702964 Ry
     ewald contribution        =     268.46058250 Ry

     total energy              =    -114.33253505 Ry
     Harris-Foulkes estimate   =    -114.46805188 Ry
     estimated scf accuracy    <       0.56265170 Ry

     total magnetization       =     1.00 Bohr mag/cell
     absolute magnetization    =     1.14 Bohr mag/cell

     iteration #  4     ecut=   120.00 Ry     beta=0.70
     CG style diagonalization
     ethr =  1.52E-03,  avg # of iterations =  4.7

     negative rho (up, down):  4.211E-04 1.995E-04
 
     Magnetic moment per site:
     atom:    1    charge:    0.8591    magn:    0.0107    constr:    0.0000
     atom:    2    charge:    0.8585    magn:    0.0109    constr:    0.0000
     atom:    3    charge:    0.8525    magn:    0.0131    constr:    0.0000
     atom:    4    charge:    0.8469    magn:    0.0100    constr:    0.0000
     atom:    5    charge:    0.8484    magn:    0.0087    constr:    0.0000
     atom:    6    charge:    0.8568    magn:    0.0114    constr:    0.0000
     atom:    7    charge:    0.4873    magn:    0.0007    constr:    0.0000
     atom:    8    charge:    0.4868    magn:    0.0015    constr:    0.0000
     atom:    9    charge:    0.4873    magn:   -0.0010    constr:    0.0000
     atom:   10    charge:    0.4881    magn:    0.0003    constr:    0.0000
     atom:   11    charge:    0.4883    magn:   -0.0001    constr:    0.0000
     atom:   12    charge:    0.4874    magn:    0.0002    constr:    0.0000
     atom:   13    charge:    5.7716    magn:    0.6046    constr:    0.0000

     total cpu time spent up to now is      144.5 secs

     The total energy is the sum of the following terms:

     one-electron contribution =    -701.55056061 Ry
     hartree contribution      =     350.32562979 Ry
     xc contribution           =     -30.65811936 Ry
     ewald contribution        =     268.46058250 Ry

     total energy              =    -114.38673550 Ry
     Harris-Foulkes estimate   =    -114.43294601 Ry
     estimated scf accuracy    <       0.23208508 Ry

     total magnetization       =     1.00 Bohr mag/cell
     absolute magnetization    =     1.08 Bohr mag/cell

     iteration #  5     ecut=   120.00 Ry     beta=0.70
     CG style diagonalization
     ethr =  6.27E-04,  avg # of iterations =  3.2

     negative rho (up, down):  1.012E-03 2.224E-04
 
     Magnetic moment per site:
     atom:    1    charge:    0.8407    magn:    0.0057    constr:    0.0000
     atom:    2    charge:    0.8436    magn:    0.0059    constr:    0.0000
     atom:    3    charge:    0.8435    magn:    0.0084    constr:    0.0000
     atom:    4    charge:    0.8454    magn:    0.0047    constr:    0.0000
     atom:    5    charge:    0.8457    magn:    0.0031    constr:    0.0000
     atom:    6    charge:    0.8418    magn:    0.0068    constr:    0.0000
     atom:    7    charge:    0.4977    magn:    0.0001    constr:    0.0000
     atom:    8    charge:    0.4973    magn:    0.0009    constr:    0.0000
     atom:    9    charge:    0.4980    magn:   -0.0013    constr:    0.0000
     atom:   10    charge:    0.4992    magn:    0.0000    constr:    0.0000
     atom:   11    charge:    0.4994    magn:   -0.0001    constr:    0.0000
     atom:   12    charge:    0.4976    magn:    0.0000    constr:    0.0000
     atom:   13    charge:    5.8297    magn:    0.7872    constr:    0.0000

     total cpu time spent up to now is      153.1 secs

     The total energy is the sum of the following terms:

     one-electron contribution =    -701.97073599 Ry
     hartree contribution      =     350.45209862 Ry
     xc contribution           =     -30.70966211 Ry
     ewald contribution        =     268.46058250 Ry

     total energy              =    -114.39248709 Ry
     Harris-Foulkes estimate   =    -114.40594312 Ry
     estimated scf accuracy    <       0.05312897 Ry

     total magnetization       =     1.00 Bohr mag/cell
     absolute magnetization    =     1.09 Bohr mag/cell

     iteration #  6     ecut=   120.00 Ry     beta=0.70
     CG style diagonalization
     ethr =  1.44E-04,  avg # of iterations =  4.5

     negative rho (up, down):  3.042E-04 7.686E-05
 
     Magnetic moment per site:
     atom:    1    charge:    0.8438    magn:    0.0027    constr:    0.0000
     atom:    2    charge:    0.8457    magn:    0.0029    constr:    0.0000
     atom:    3    charge:    0.8449    magn:    0.0037    constr:    0.0000
     atom:    4    charge:    0.8446    magn:    0.0013    constr:    0.0000
     atom:    5    charge:    0.8460    magn:   -0.0002    constr:    0.0000
     atom:    6    charge:    0.8450    magn:    0.0023    constr:    0.0000
     atom:    7    charge:    0.4957    magn:    0.0001    constr:    0.0000
     atom:    8    charge:    0.4952    magn:    0.0007    constr:    0.0000
     atom:    9    charge:    0.4948    magn:   -0.0014    constr:    0.0000
     atom:   10    charge:    0.4953    magn:   -0.0002    constr:    0.0000
     atom:   11    charge:    0.4953    magn:   -0.0003    constr:    0.0000
     atom:   12    charge:    0.4948    magn:   -0.0004    constr:    0.0000
     atom:   13    charge:    5.7753    magn:    0.8828    constr:    0.0000

     total cpu time spent up to now is      164.7 secs

     The total energy is the sum of the following terms:

     one-electron contribution =    -704.18703715 Ry
     hartree contribution      =     350.24674597 Ry
     xc contribution           =     -30.65869792 Ry
     ewald contribution        =     268.46058250 Ry

     total energy              =    -114.39535687 Ry
     Harris-Foulkes estimate   =    -114.40966195 Ry
     estimated scf accuracy    <       0.11044592 Ry

     total magnetization       =     1.00 Bohr mag/cell
     absolute magnetization    =     1.76 Bohr mag/cell

     iteration #  7     ecut=   120.00 Ry     beta=0.70
     CG style diagonalization
     ethr =  1.44E-04,  avg # of iterations =  3.2

     negative rho (up, down):  2.711E-03 7.996E-04
 
     Magnetic moment per site:
     atom:    1    charge:    0.8426    magn:    0.0009    constr:    0.0000
     atom:    2    charge:    0.8445    magn:    0.0010    constr:    0.0000
     atom:    3    charge:    0.8425    magn:    0.0022    constr:    0.0000
     atom:    4    charge:    0.8415    magn:   -0.0013    constr:    0.0000
     atom:    5    charge:    0.8429    magn:   -0.0023    constr:    0.0000
     atom:    6    charge:    0.8429    magn:    0.0011    constr:    0.0000
     atom:    7    charge:    0.4998    magn:   -0.0003    constr:    0.0000
     atom:    8    charge:    0.4994    magn:    0.0002    constr:    0.0000
     atom:    9    charge:    0.4989    magn:   -0.0011    constr:    0.0000
     atom:   10    charge:    0.4992    magn:   -0.0003    constr:    0.0000
     atom:   11    charge:    0.4990    magn:   -0.0002    constr:    0.0000
     atom:   12    charge:    0.4987    magn:   -0.0004    constr:    0.0000
     atom:   13    charge:    5.8462    magn:    0.9530    constr:    0.0000

     total cpu time spent up to now is      173.2 secs

     The total energy is the sum of the following terms:

     one-electron contribution =    -702.58209842 Ry
     hartree contribution      =     350.86934638 Ry
     xc contribution           =     -30.76249178 Ry
     ewald contribution        =     268.46058250 Ry

     total energy              =    -114.40261170 Ry
     Harris-Foulkes estimate   =    -114.41007165 Ry
     estimated scf accuracy    <       0.02437732 Ry

     total magnetization       =     1.00 Bohr mag/cell
     absolute magnetization    =     1.15 Bohr mag/cell

     iteration #  8     ecut=   120.00 Ry     beta=0.70
     CG style diagonalization
     ethr =  6.59E-05,  avg # of iterations =  4.0

     negative rho (up, down):  3.714E-04 7.219E-05
 
     Magnetic moment per site:
     atom:    1    charge:    0.8438    magn:   -0.0032    constr:    0.0000
     atom:    2    charge:    0.8458    magn:   -0.0034    constr:    0.0000
     atom:    3    charge:    0.8453    magn:   -0.0034    constr:    0.0000
     atom:    4    charge:    0.8422    magn:   -0.0058    constr:    0.0000
     atom:    5    charge:    0.8436    magn:   -0.0066    constr:    0.0000
     atom:    6    charge:    0.8452    magn:   -0.0043    constr:    0.0000
     atom:    7    charge:    0.4982    magn:   -0.0002    constr:    0.0000
     atom:    8    charge:    0.4979    magn:    0.0000    constr:    0.0000
     atom:    9    charge:    0.4971    magn:   -0.0010    constr:    0.0000
     atom:   10    charge:    0.4971    magn:   -0.0004    constr:    0.0000
     atom:   11    charge:    0.4968    magn:   -0.0003    constr:    0.0000
     atom:   12    charge:    0.4968    magn:   -0.0005    constr:    0.0000
     atom:   13    charge:    5.8119    magn:    1.0769    constr:    0.0000

     total cpu time spent up to now is      183.5 secs

     The total energy is the sum of the following terms:

     one-electron contribution =    -704.96002983 Ry
     hartree contribution      =     350.78483814 Ry
     xc contribution           =     -30.74254549 Ry
     ewald contribution        =     268.46058250 Ry

     total energy              =    -114.40115610 Ry
     Harris-Foulkes estimate   =    -114.41794198 Ry
     estimated scf accuracy    <       0.30816834 Ry

     total magnetization       =     1.00 Bohr mag/cell
     absolute magnetization    =     2.47 Bohr mag/cell

     iteration #  9     ecut=   120.00 Ry     beta=0.70
     CG style diagonalization
     ethr =  6.59E-05,  avg # of iterations =  3.5

     negative rho (up, down):  1.343E-05 8.201E-06
 
     Magnetic moment per site:
     atom:    1    charge:    0.8458    magn:   -0.0063    constr:    0.0000
     atom:    2    charge:    0.8471    magn:   -0.0066    constr:    0.0000
     atom:    3    charge:    0.8452    magn:   -0.0066    constr:    0.0000
     atom:    4    charge:    0.8430    magn:   -0.0101    constr:    0.0000
     atom:    5    charge:    0.8447    magn:   -0.0103    constr:    0.0000
     atom:    6    charge:    0.8459    magn:   -0.0072    constr:    0.0000
     atom:    7    charge:    0.4970    magn:   -0.0001    constr:    0.0000
     atom:    8    charge:    0.4969    magn:    0.0000    constr:    0.0000
     atom:    9    charge:    0.4956    magn:   -0.0004    constr:    0.0000
     atom:   10    charge:    0.4956    magn:   -0.0003    constr:    0.0000
     atom:   11    charge:    0.4952    magn:   -0.0002    constr:    0.0000
     atom:   12    charge:    0.4955    magn:   -0.0003    constr:    0.0000
     atom:   13    charge:    5.7988    magn:    1.1633    constr:    0.0000

     total cpu time spent up to now is      192.5 secs

     The total energy is the sum of the following terms:

     one-electron contribution =    -702.96324248 Ry
     hartree contribution      =     350.76226702 Ry
     xc contribution           =     -30.73766346 Ry
     ewald contribution        =     268.46058250 Ry

     total energy              =    -114.41047936 Ry
     Harris-Foulkes estimate   =    -114.41049821 Ry
     estimated scf accuracy    <       0.00379399 Ry

     total magnetization       =     1.00 Bohr mag/cell
     absolute magnetization    =     1.60 Bohr mag/cell

     iteration # 10     ecut=   120.00 Ry     beta=0.70
     CG style diagonalization
     c_bands:  1 eigenvalues not converged
     c_bands:  1 eigenvalues not converged
     ethr =  1.03E-05,  avg # of iterations =  5.0

     negative rho (up, down):  1.068E-05 8.193E-06
 
     Magnetic moment per site:
     atom:    1    charge:    0.8456    magn:   -0.0066    constr:    0.0000
     atom:    2    charge:    0.8471    magn:   -0.0069    constr:    0.0000
     atom:    3    charge:    0.8454    magn:   -0.0070    constr:    0.0000
     atom:    4    charge:    0.8430    magn:   -0.0108    constr:    0.0000
     atom:    5    charge:    0.8445    magn:   -0.0109    constr:    0.0000
     atom:    6    charge:    0.8457    magn:   -0.0075    constr:    0.0000
     atom:    7    charge:    0.4971    magn:    0.0000    constr:    0.0000
     atom:    8    charge:    0.4969    magn:    0.0001    constr:    0.0000
     atom:    9    charge:    0.4957    magn:   -0.0003    constr:    0.0000
     atom:   10    charge:    0.4956    magn:   -0.0001    constr:    0.0000
     atom:   11    charge:    0.4953    magn:   -0.0001    constr:    0.0000
     atom:   12    charge:    0.4956    magn:   -0.0002    constr:    0.0000
     atom:   13    charge:    5.7990    magn:    1.1717    constr:    0.0000

     total cpu time spent up to now is      204.9 secs

     The total energy is the sum of the following terms:

     one-electron contribution =    -702.64968824 Ry
     hartree contribution      =     350.77199333 Ry
     xc contribution           =     -30.74005742 Ry
     ewald contribution        =     268.46058250 Ry

     total energy              =    -114.41157430 Ry
     Harris-Foulkes estimate   =    -114.41133850 Ry
     estimated scf accuracy    <       0.00220869 Ry

     total magnetization       =     1.00 Bohr mag/cell
     absolute magnetization    =     1.50 Bohr mag/cell

     iteration # 11     ecut=   120.00 Ry     beta=0.70
     CG style diagonalization
     c_bands:  1 eigenvalues not converged
     c_bands:  1 eigenvalues not converged
     ethr =  5.97E-06,  avg # of iterations =  4.0

     negative rho (up, down):  4.510E-06 5.100E-06
 
     Magnetic moment per site:
     atom:    1    charge:    0.8455    magn:   -0.0067    constr:    0.0000
     atom:    2    charge:    0.8469    magn:   -0.0070    constr:    0.0000
     atom:    3    charge:    0.8453    magn:   -0.0074    constr:    0.0000
     atom:    4    charge:    0.8429    magn:   -0.0111    constr:    0.0000
     atom:    5    charge:    0.8445    magn:   -0.0112    constr:    0.0000
     atom:    6    charge:    0.8458    magn:   -0.0079    constr:    0.0000
     atom:    7    charge:    0.4971    magn:    0.0001    constr:    0.0000
     atom:    8    charge:    0.4969    magn:    0.0001    constr:    0.0000
     atom:    9    charge:    0.4957    magn:   -0.0002    constr:    0.0000
     atom:   10    charge:    0.4956    magn:    0.0000    constr:    0.0000
     atom:   11    charge:    0.4952    magn:    0.0000    constr:    0.0000
     atom:   12    charge:    0.4956    magn:   -0.0001    constr:    0.0000
     atom:   13    charge:    5.7967    magn:    1.1754    constr:    0.0000

     total cpu time spent up to now is      215.1 secs

     The total energy is the sum of the following terms:

     one-electron contribution =    -702.65959084 Ry
     hartree contribution      =     350.75489289 Ry
     xc contribution           =     -30.73752650 Ry
     ewald contribution        =     268.46058250 Ry

     total energy              =    -114.41193375 Ry
     Harris-Foulkes estimate   =    -114.41165506 Ry
     estimated scf accuracy    <       0.00182855 Ry

     total magnetization       =     1.00 Bohr mag/cell
     absolute magnetization    =     1.52 Bohr mag/cell

     iteration # 12     ecut=   120.00 Ry     beta=0.70
     CG style diagonalization
     c_bands:  1 eigenvalues not converged
     ethr =  4.94E-06,  avg # of iterations =  3.6

     negative rho (up, down):  3.633E-06 4.550E-06
 
     Magnetic moment per site:
     atom:    1    charge:    0.8454    magn:   -0.0068    constr:    0.0000
     atom:    2    charge:    0.8469    magn:   -0.0071    constr:    0.0000
     atom:    3    charge:    0.8453    magn:   -0.0079    constr:    0.0000
     atom:    4    charge:    0.8429    magn:   -0.0115    constr:    0.0000
     atom:    5    charge:    0.8444    magn:   -0.0115    constr:    0.0000
     atom:    6    charge:    0.8456    magn:   -0.0084    constr:    0.0000
     atom:    7    charge:    0.4972    magn:    0.0002    constr:    0.0000
     atom:    8    charge:    0.4970    magn:    0.0002    constr:    0.0000
     atom:    9    charge:    0.4957    magn:    0.0000    constr:    0.0000
     atom:   10    charge:    0.4956    magn:    0.0001    constr:    0.0000
     atom:   11    charge:    0.4953    magn:    0.0001    constr:    0.0000
     atom:   12    charge:    0.4957    magn:    0.0000    constr:    0.0000
     atom:   13    charge:    5.7958    magn:    1.1783    constr:    0.0000

     total cpu time spent up to now is      224.5 secs

     The total energy is the sum of the following terms:

     one-electron contribution =    -702.62294797 Ry
     hartree contribution      =     350.75522736 Ry
     xc contribution           =     -30.73764618 Ry
     ewald contribution        =     268.46058250 Ry

     total energy              =    -114.41231516 Ry
     Harris-Foulkes estimate   =    -114.41201306 Ry
     estimated scf accuracy    <       0.00271081 Ry

     total magnetization       =     1.00 Bohr mag/cell
     absolute magnetization    =     1.51 Bohr mag/cell

     iteration # 13     ecut=   120.00 Ry     beta=0.70
     CG style diagonalization
     ethr =  4.94E-06,  avg # of iterations =  3.2

     negative rho (up, down):  9.298E-06 6.304E-06
 
     Magnetic moment per site:
     atom:    1    charge:    0.8455    magn:   -0.0074    constr:    0.0000
     atom:    2    charge:    0.8472    magn:   -0.0076    constr:    0.0000
     atom:    3    charge:    0.8448    magn:   -0.0059    constr:    0.0000
     atom:    4    charge:    0.8431    magn:   -0.0116    constr:    0.0000
     atom:    5    charge:    0.8445    magn:   -0.0118    constr:    0.0000
     atom:    6    charge:    0.8450    magn:   -0.0063    constr:    0.0000
     atom:    7    charge:    0.4973    magn:    0.0001    constr:    0.0000
     atom:    8    charge:    0.4970    magn:    0.0001    constr:    0.0000
     atom:    9    charge:    0.4958    magn:   -0.0002    constr:    0.0000
     atom:   10    charge:    0.4956    magn:   -0.0001    constr:    0.0000
     atom:   11    charge:    0.4952    magn:    0.0000    constr:    0.0000
     atom:   12    charge:    0.4957    magn:   -0.0002    constr:    0.0000
     atom:   13    charge:    5.7985    magn:    1.1780    constr:    0.0000

     total cpu time spent up to now is      233.0 secs

     The total energy is the sum of the following terms:

     one-electron contribution =    -702.61170565 Ry
     hartree contribution      =     350.74725087 Ry
     xc contribution           =     -30.74296432 Ry
     ewald contribution        =     268.46058250 Ry

     total energy              =    -114.40886872 Ry
     Harris-Foulkes estimate   =    -114.41241603 Ry
     estimated scf accuracy    <       0.00307546 Ry

     total magnetization       =     1.00 Bohr mag/cell
     absolute magnetization    =     1.50 Bohr mag/cell

     iteration # 14     ecut=   120.00 Ry     beta=0.70
     CG style diagonalization
     ethr =  4.94E-06,  avg # of iterations =  3.7

     negative rho (up, down):  2.993E-06 3.795E-05
 
     Magnetic moment per site:
     atom:    1    charge:    0.8458    magn:   -0.0076    constr:    0.0000
     atom:    2    charge:    0.8475    magn:   -0.0076    constr:    0.0000
     atom:    3    charge:    0.8434    magn:   -0.0021    constr:    0.0000
     atom:    4    charge:    0.8437    magn:   -0.0105    constr:    0.0000
     atom:    5    charge:    0.8451    magn:   -0.0108    constr:    0.0000
     atom:    6    charge:    0.8432    magn:   -0.0027    constr:    0.0000
     atom:    7    charge:    0.4970    magn:    0.0000    constr:    0.0000
     atom:    8    charge:    0.4968    magn:    0.0001    constr:    0.0000
     atom:    9    charge:    0.4958    magn:   -0.0006    constr:    0.0000
     atom:   10    charge:    0.4957    magn:   -0.0003    constr:    0.0000
     atom:   11    charge:    0.4954    magn:   -0.0002    constr:    0.0000
     atom:   12    charge:    0.4957    magn:   -0.0004    constr:    0.0000
     atom:   13    charge:    5.8028    magn:    1.1444    constr:    0.0000

     total cpu time spent up to now is      242.5 secs

     The total energy is the sum of the following terms:

     one-electron contribution =    -702.66284121 Ry
     hartree contribution      =     350.71046618 Ry
     xc contribution           =     -30.75348330 Ry
     ewald contribution        =     268.46058250 Ry

     total energy              =    -114.40405741 Ry
     Harris-Foulkes estimate   =    -114.41070857 Ry
     estimated scf accuracy    <       0.00157856 Ry

     total magnetization       =     1.00 Bohr mag/cell
     absolute magnetization    =     1.53 Bohr mag/cell

     iteration # 15     ecut=   120.00 Ry     beta=0.70
     CG style diagonalization
     ethr =  4.27E-06,  avg # of iterations =  4.6

     negative rho (up, down):  4.162E-06 1.205E-05
 
     Magnetic moment per site:
     atom:    1    charge:    0.8452    magn:   -0.0068    constr:    0.0000
     atom:    2    charge:    0.8469    magn:   -0.0070    constr:    0.0000
     atom:    3    charge:    0.8431    magn:   -0.0041    constr:    0.0000
     atom:    4    charge:    0.8437    magn:   -0.0109    constr:    0.0000
     atom:    5    charge:    0.8451    magn:   -0.0110    constr:    0.0000
     atom:    6    charge:    0.8429    magn:   -0.0047    constr:    0.0000
     atom:    7    charge:    0.4974    magn:    0.0002    constr:    0.0000
     atom:    8    charge:    0.4971    magn:    0.0003    constr:    0.0000
     atom:    9    charge:    0.4960    magn:   -0.0002    constr:    0.0000
     atom:   10    charge:    0.4958    magn:    0.0000    constr:    0.0000
     atom:   11    charge:    0.4956    magn:    0.0001    constr:    0.0000
     atom:   12    charge:    0.4960    magn:   -0.0001    constr:    0.0000
     atom:   13    charge:    5.7995    magn:    1.1452    constr:    0.0000

     total cpu time spent up to now is      254.0 secs

     The total energy is the sum of the following terms:

     one-electron contribution =    -702.78896568 Ry
     hartree contribution      =     350.70760236 Ry
     xc contribution           =     -30.74515481 Ry
     ewald contribution        =     268.46058250 Ry

     total energy              =    -114.40819166 Ry
     Harris-Foulkes estimate   =    -114.40784707 Ry
     estimated scf accuracy    <       0.00188369 Ry

     total magnetization       =     1.00 Bohr mag/cell
     absolute magnetization    =     1.56 Bohr mag/cell

     iteration # 16     ecut=   120.00 Ry     beta=0.70
     CG style diagonalization
     ethr =  4.27E-06,  avg # of iterations =  3.5

     negative rho (up, down):  1.014E-04 7.756E-05
 
     Magnetic moment per site:
     atom:    1    charge:    0.8447    magn:   -0.0063    constr:    0.0000
     atom:    2    charge:    0.8464    magn:   -0.0065    constr:    0.0000
     atom:    3    charge:    0.8439    magn:   -0.0055    constr:    0.0000
     atom:    4    charge:    0.8429    magn:   -0.0112    constr:    0.0000
     atom:    5    charge:    0.8442    magn:   -0.0113    constr:    0.0000
     atom:    6    charge:    0.8437    magn:   -0.0059    constr:    0.0000
     atom:    7    charge:    0.4976    magn:    0.0003    constr:    0.0000
     atom:    8    charge:    0.4973    magn:    0.0004    constr:    0.0000
     atom:    9    charge:    0.4961    magn:    0.0000    constr:    0.0000
     atom:   10    charge:    0.4960    magn:    0.0002    constr:    0.0000
     atom:   11    charge:    0.4957    magn:    0.0003    constr:    0.0000
     atom:   12    charge:    0.4961    magn:    0.0001    constr:    0.0000
     atom:   13    charge:    5.8001    magn:    1.1500    constr:    0.0000

     total cpu time spent up to now is      262.8 secs

     The total energy is the sum of the following terms:

     one-electron contribution =    -702.72637708 Ry
     hartree contribution      =     350.70081453 Ry
     xc contribution           =     -30.75250226 Ry
     ewald contribution        =     268.46058250 Ry

     total energy              =    -114.40932503 Ry
     Harris-Foulkes estimate   =    -114.40975588 Ry
     estimated scf accuracy    <       0.00176300 Ry

     total magnetization       =     1.00 Bohr mag/cell
     absolute magnetization    =     1.52 Bohr mag/cell

     iteration # 17     ecut=   120.00 Ry     beta=0.70
     CG style diagonalization
     ethr =  4.27E-06,  avg # of iterations =  4.7

     negative rho (up, down):  1.590E-04 2.813E-04
 
     Magnetic moment per site:
     atom:    1    charge:    0.8450    magn:   -0.0057    constr:    0.0000
     atom:    2    charge:    0.8465    magn:   -0.0059    constr:    0.0000
     atom:    3    charge:    0.8441    magn:   -0.0043    constr:    0.0000
     atom:    4    charge:    0.8429    magn:   -0.0102    constr:    0.0000
     atom:    5    charge:    0.8443    magn:   -0.0105    constr:    0.0000
     atom:    6    charge:    0.8442    magn:   -0.0048    constr:    0.0000
     atom:    7    charge:    0.4973    magn:    0.0001    constr:    0.0000
     atom:    8    charge:    0.4970    magn:    0.0002    constr:    0.0000
     atom:    9    charge:    0.4958    magn:   -0.0004    constr:    0.0000
     atom:   10    charge:    0.4958    magn:   -0.0001    constr:    0.0000
     atom:   11    charge:    0.4954    magn:    0.0000    constr:    0.0000
     atom:   12    charge:    0.4957    magn:   -0.0002    constr:    0.0000
     atom:   13    charge:    5.8032    magn:    1.1403    constr:    0.0000

     total cpu time spent up to now is      274.4 secs

     The total energy is the sum of the following terms:

     one-electron contribution =    -702.89083412 Ry
     hartree contribution      =     350.70516655 Ry
     xc contribution           =     -30.76359049 Ry
     ewald contribution        =     268.46058250 Ry

     total energy              =    -114.40806234 Ry
     Harris-Foulkes estimate   =    -114.40999080 Ry
     estimated scf accuracy    <       0.00250966 Ry

     total magnetization       =     1.00 Bohr mag/cell
     absolute magnetization    =     1.59 Bohr mag/cell

     iteration # 18     ecut=   120.00 Ry     beta=0.70
     CG style diagonalization
     ethr =  4.27E-06,  avg # of iterations =  3.5

     negative rho (up, down):  1.657E-04 5.912E-04
 
     Magnetic moment per site:
     atom:    1    charge:    0.8453    magn:   -0.0064    constr:    0.0000
     atom:    2    charge:    0.8469    magn:   -0.0064    constr:    0.0000
     atom:    3    charge:    0.8440    magn:   -0.0026    constr:    0.0000
     atom:    4    charge:    0.8430    magn:   -0.0102    constr:    0.0000
     atom:    5    charge:    0.8444    magn:   -0.0106    constr:    0.0000
     atom:    6    charge:    0.8443    magn:   -0.0032    constr:    0.0000
     atom:    7    charge:    0.4970    magn:    0.0000    constr:    0.0000
     atom:    8    charge:    0.4969    magn:    0.0001    constr:    0.0000
     atom:    9    charge:    0.4956    magn:   -0.0006    constr:    0.0000
     atom:   10    charge:    0.4956    magn:   -0.0003    constr:    0.0000
     atom:   11    charge:    0.4952    magn:   -0.0002    constr:    0.0000
     atom:   12    charge:    0.4955    magn:   -0.0004    constr:    0.0000
     atom:   13    charge:    5.8053    magn:    1.1420    constr:    0.0000

     total cpu time spent up to now is      283.3 secs

     The total energy is the sum of the following terms:

     one-electron contribution =    -703.06442703 Ry
     hartree contribution      =     350.70612537 Ry
     xc contribution           =     -30.77350897 Ry
     ewald contribution        =     268.46058250 Ry

     total energy              =    -114.40631731 Ry
     Harris-Foulkes estimate   =    -114.40863870 Ry
     estimated scf accuracy    <       0.00877845 Ry

     total magnetization       =     1.00 Bohr mag/cell
     absolute magnetization    =     1.67 Bohr mag/cell

     iteration # 19     ecut=   120.00 Ry     beta=0.70
     CG style diagonalization
     ethr =  4.27E-06,  avg # of iterations =  3.4

     negative rho (up, down):  2.360E-04 3.394E-04
 
     Magnetic moment per site:
     atom:    1    charge:    0.8443    magn:   -0.0053    constr:    0.0000
     atom:    2    charge:    0.8461    magn:   -0.0054    constr:    0.0000
     atom:    3    charge:    0.8450    magn:   -0.0054    constr:    0.0000
     atom:    4    charge:    0.8426    magn:   -0.0103    constr:    0.0000
     atom:    5    charge:    0.8440    magn:   -0.0107    constr:    0.0000
     atom:    6    charge:    0.8452    magn:   -0.0059    constr:    0.0000
     atom:    7    charge:    0.4973    magn:    0.0001    constr:    0.0000
     atom:    8    charge:    0.4971    magn:    0.0002    constr:    0.0000
     atom:    9    charge:    0.4957    magn:   -0.0003    constr:    0.0000
     atom:   10    charge:    0.4958    magn:   -0.0001    constr:    0.0000
     atom:   11    charge:    0.4954    magn:    0.0000    constr:    0.0000
     atom:   12    charge:    0.4956    magn:   -0.0002    constr:    0.0000
     atom:   13    charge:    5.8028    magn:    1.1481    constr:    0.0000

     total cpu time spent up to now is      292.0 secs

     The total energy is the sum of the following terms:

     one-electron contribution =    -703.20376073 Ry
     hartree contribution      =     350.70093417 Ry
     xc contribution           =     -30.76475648 Ry
     ewald contribution        =     268.46058250 Ry

     total energy              =    -114.40663218 Ry
     Harris-Foulkes estimate   =    -114.40730770 Ry
     estimated scf accuracy    <       0.01828919 Ry

     total magnetization       =     1.00 Bohr mag/cell
     absolute magnetization    =     1.76 Bohr mag/cell

     iteration # 20     ecut=   120.00 Ry     beta=0.70
     CG style diagonalization
     ethr =  4.27E-06,  avg # of iterations =  3.8

     negative rho (up, down):  2.353E-04 1.114E-03
 
     Magnetic moment per site:
     atom:    1    charge:    0.8453    magn:   -0.0075    constr:    0.0000
     atom:    2    charge:    0.8472    magn:   -0.0076    constr:    0.0000
     atom:    3    charge:    0.8433    magn:   -0.0030    constr:    0.0000
     atom:    4    charge:    0.8430    magn:   -0.0121    constr:    0.0000
     atom:    5    charge:    0.8440    magn:   -0.0122    constr:    0.0000
     atom:    6    charge:    0.8429    magn:   -0.0035    constr:    0.0000
     atom:    7    charge:    0.4974    magn:    0.0003    constr:    0.0000
     atom:    8    charge:    0.4972    magn:    0.0004    constr:    0.0000
     atom:    9    charge:    0.4959    magn:   -0.0002    constr:    0.0000
     atom:   10    charge:    0.4959    magn:    0.0000    constr:    0.0000
     atom:   11    charge:    0.4955    magn:    0.0001    constr:    0.0000
     atom:   12    charge:    0.4958    magn:   -0.0001    constr:    0.0000
     atom:   13    charge:    5.8033    magn:    1.1602    constr:    0.0000

     total cpu time spent up to now is      301.6 secs

     The total energy is the sum of the following terms:

     one-electron contribution =    -703.13189116 Ry
     hartree contribution      =     350.68974412 Ry
     xc contribution           =     -30.78358065 Ry
     ewald contribution        =     268.46058250 Ry

     total energy              =    -114.40360670 Ry
     Harris-Foulkes estimate   =    -114.40936921 Ry
     estimated scf accuracy    <       0.01087639 Ry

     total magnetization       =     1.00 Bohr mag/cell
     absolute magnetization    =     1.70 Bohr mag/cell

     iteration # 21     ecut=   120.00 Ry     beta=0.70
     CG style diagonalization
     ethr =  4.27E-06,  avg # of iterations =  3.8

     negative rho (up, down):  1.452E-04 1.791E-04
 
     Magnetic moment per site:
     atom:    1    charge:    0.8447    magn:   -0.0065    constr:    0.0000
     atom:    2    charge:    0.8465    magn:   -0.0068    constr:    0.0000
     atom:    3    charge:    0.8440    magn:   -0.0084    constr:    0.0000
     atom:    4    charge:    0.8432    magn:   -0.0129    constr:    0.0000
     atom:    5    charge:    0.8444    magn:   -0.0129    constr:    0.0000
     atom:    6    charge:    0.8431    magn:   -0.0087    constr:    0.0000
     atom:    7    charge:    0.4976    magn:    0.0004    constr:    0.0000
     atom:    8    charge:    0.4973    magn:    0.0004    constr:    0.0000
     atom:    9    charge:    0.4962    magn:    0.0002    constr:    0.0000
     atom:   10    charge:    0.4960    magn:    0.0003    constr:    0.0000
     atom:   11    charge:    0.4957    magn:    0.0004    constr:    0.0000
     atom:   12    charge:    0.4961    magn:    0.0002    constr:    0.0000
     atom:   13    charge:    5.7927    magn:    1.1936    constr:    0.0000

     total cpu time spent up to now is      311.3 secs

     The total energy is the sum of the following terms:

     one-electron contribution =    -703.32185803 Ry
     hartree contribution      =     350.69319903 Ry
     xc contribution           =     -30.75819042 Ry
     ewald contribution        =     268.46058250 Ry

     total energy              =    -114.40068198 Ry
     Harris-Foulkes estimate   =    -114.40682372 Ry
     estimated scf accuracy    <       0.02574776 Ry

     total magnetization       =     1.00 Bohr mag/cell
     absolute magnetization    =     1.81 Bohr mag/cell

     iteration # 22     ecut=   120.00 Ry     beta=0.70
     CG style diagonalization
     ethr =  4.27E-06,  avg # of iterations =  4.5

     negative rho (up, down):  7.998E-05 3.632E-04
 
     Magnetic moment per site:
     atom:    1    charge:    0.8433    magn:   -0.0028    constr:    0.0000
     atom:    2    charge:    0.8449    magn:   -0.0033    constr:    0.0000
     atom:    3    charge:    0.8456    magn:   -0.0100    constr:    0.0000
     atom:    4    charge:    0.8423    magn:   -0.0097    constr:    0.0000
     atom:    5    charge:    0.8436    magn:   -0.0096    constr:    0.0000
     atom:    6    charge:    0.8451    magn:   -0.0102    constr:    0.0000
     atom:    7    charge:    0.4979    magn:    0.0005    constr:    0.0000
     atom:    8    charge:    0.4976    magn:    0.0005    constr:    0.0000
     atom:    9    charge:    0.4960    magn:    0.0005    constr:    0.0000
     atom:   10    charge:    0.4962    magn:    0.0006    constr:    0.0000
     atom:   11    charge:    0.4959    magn:    0.0006    constr:    0.0000
     atom:   12    charge:    0.4960    magn:    0.0005    constr:    0.0000
     atom:   13    charge:    5.8011    magn:    1.1258    constr:    0.0000

     total cpu time spent up to now is      322.3 secs

     The total energy is the sum of the following terms:

     one-electron contribution =    -702.83589995 Ry
     hartree contribution      =     350.69924608 Ry
     xc contribution           =     -30.76629297 Ry
     ewald contribution        =     268.46058250 Ry

     total energy              =    -114.40898367 Ry
     Harris-Foulkes estimate   =    -114.41072284 Ry
     estimated scf accuracy    <       0.00281853 Ry

     total magnetization       =     1.00 Bohr mag/cell
     absolute magnetization    =     1.56 Bohr mag/cell

     iteration # 23     ecut=   120.00 Ry     beta=0.70
     CG style diagonalization
     ethr =  4.27E-06,  avg # of iterations =  5.0

     negative rho (up, down):  3.030E-05 3.558E-05
 
     Magnetic moment per site:
     atom:    1    charge:    0.8434    magn:   -0.0026    constr:    0.0000
     atom:    2    charge:    0.8452    magn:   -0.0032    constr:    0.0000
     atom:    3    charge:    0.8452    magn:   -0.0081    constr:    0.0000
     atom:    4    charge:    0.8417    magn:   -0.0086    constr:    0.0000
     atom:    5    charge:    0.8429    magn:   -0.0084    constr:    0.0000
     atom:    6    charge:    0.8452    magn:   -0.0084    constr:    0.0000
     atom:    7    charge:    0.4980    magn:    0.0006    constr:    0.0000
     atom:    8    charge:    0.4977    magn:    0.0006    constr:    0.0000
     atom:    9    charge:    0.4959    magn:    0.0008    constr:    0.0000
     atom:   10    charge:    0.4963    magn:    0.0008    constr:    0.0000
     atom:   11    charge:    0.4961    magn:    0.0007    constr:    0.0000
     atom:   12    charge:    0.4959    magn:    0.0007    constr:    0.0000
     atom:   13    charge:    5.8087    magn:    1.0812    constr:    0.0000

     total cpu time spent up to now is      334.5 secs

     The total energy is the sum of the following terms:

     one-electron contribution =    -703.09457551 Ry
     hartree contribution      =     350.69623507 Ry
     xc contribution           =     -30.74352049 Ry
     ewald contribution        =     268.46058250 Ry

     total energy              =    -114.41332911 Ry
     Harris-Foulkes estimate   =    -114.41188130 Ry
     estimated scf accuracy    <       0.00674900 Ry

     total magnetization       =     1.00 Bohr mag/cell
     absolute magnetization    =     1.62 Bohr mag/cell

     iteration # 24     ecut=   120.00 Ry     beta=0.70
     CG style diagonalization
     ethr =  4.27E-06,  avg # of iterations =  4.4

     negative rho (up, down):  1.119E-06 5.113E-07
 
     Magnetic moment per site:
     atom:    1    charge:    0.8438    magn:   -0.0038    constr:    0.0000
     atom:    2    charge:    0.8454    magn:   -0.0043    constr:    0.0000
     atom:    3    charge:    0.8454    magn:   -0.0086    constr:    0.0000
     atom:    4    charge:    0.8426    magn:   -0.0097    constr:    0.0000
     atom:    5    charge:    0.8441    magn:   -0.0097    constr:    0.0000
     atom:    6    charge:    0.8453    magn:   -0.0089    constr:    0.0000
     atom:    7    charge:    0.4975    magn:    0.0003    constr:    0.0000
     atom:    8    charge:    0.4973    magn:    0.0004    constr:    0.0000
     atom:    9    charge:    0.4960    magn:    0.0003    constr:    0.0000
     atom:   10    charge:    0.4959    magn:    0.0004    constr:    0.0000
     atom:   11    charge:    0.4957    magn:    0.0004    constr:    0.0000
     atom:   12    charge:    0.4960    magn:    0.0003    constr:    0.0000
     atom:   13    charge:    5.8025    magn:    1.1248    constr:    0.0000

     total cpu time spent up to now is      345.2 secs

     The total energy is the sum of the following terms:

     one-electron contribution =    -703.23561434 Ry
     hartree contribution      =     350.71787716 Ry
     xc contribution           =     -30.73840122 Ry
     ewald contribution        =     268.46058250 Ry

     total energy              =    -114.41380018 Ry
     Harris-Foulkes estimate   =    -114.41401182 Ry
     estimated scf accuracy    <       0.01011396 Ry

     total magnetization       =     1.00 Bohr mag/cell
     absolute magnetization    =     1.68 Bohr mag/cell

     iteration # 25     ecut=   120.00 Ry     beta=0.70
     CG style diagonalization
     ethr =  4.27E-06,  avg # of iterations =  4.2

     negative rho (up, down):  1.020E-06 1.449E-05
 
     Magnetic moment per site:
     atom:    1    charge:    0.8434    magn:   -0.0024    constr:    0.0000
     atom:    2    charge:    0.8451    magn:   -0.0029    constr:    0.0000
     atom:    3    charge:    0.8460    magn:   -0.0110    constr:    0.0000
     atom:    4    charge:    0.8426    magn:   -0.0088    constr:    0.0000
     atom:    5    charge:    0.8442    magn:   -0.0090    constr:    0.0000
     atom:    6    charge:    0.8460    magn:   -0.0112    constr:    0.0000
     atom:    7    charge:    0.4974    magn:    0.0003    constr:    0.0000
     atom:    8    charge:    0.4972    magn:    0.0003    constr:    0.0000
     atom:    9    charge:    0.4959    magn:    0.0004    constr:    0.0000
     atom:   10    charge:    0.4959    magn:    0.0004    constr:    0.0000
     atom:   11    charge:    0.4956    magn:    0.0004    constr:    0.0000
     atom:   12    charge:    0.4959    magn:    0.0004    constr:    0.0000
     atom:   13    charge:    5.8033    magn:    1.1213    constr:    0.0000

     total cpu time spent up to now is      355.7 secs

     The total energy is the sum of the following terms:

     one-electron contribution =    -702.98763171 Ry
     hartree contribution      =     350.74744611 Ry
     xc contribution           =     -30.75276167 Ry
     ewald contribution        =     268.46058250 Ry

     total energy              =    -114.41263632 Ry
     Harris-Foulkes estimate   =    -114.41441365 Ry
     estimated scf accuracy    <       0.00164458 Ry

     total magnetization       =     1.00 Bohr mag/cell
     absolute magnetization    =     1.61 Bohr mag/cell

     iteration # 26     ecut=   120.00 Ry     beta=0.70
     CG style diagonalization
     ethr =  4.27E-06,  avg # of iterations =  3.9

     negative rho (up, down):  5.578E-08 7.983E-07
 
     Magnetic moment per site:
     atom:    1    charge:    0.8436    magn:   -0.0032    constr:    0.0000
     atom:    2    charge:    0.8452    magn:   -0.0036    constr:    0.0000
     atom:    3    charge:    0.8458    magn:   -0.0105    constr:    0.0000
     atom:    4    charge:    0.8427    magn:   -0.0094    constr:    0.0000
     atom:    5    charge:    0.8442    magn:   -0.0096    constr:    0.0000
     atom:    6    charge:    0.8458    magn:   -0.0107    constr:    0.0000
     atom:    7    charge:    0.4975    magn:    0.0003    constr:    0.0000
     atom:    8    charge:    0.4972    magn:    0.0003    constr:    0.0000
     atom:    9    charge:    0.4960    magn:    0.0004    constr:    0.0000
     atom:   10    charge:    0.4959    magn:    0.0004    constr:    0.0000
     atom:   11    charge:    0.4957    magn:    0.0004    constr:    0.0000
     atom:   12    charge:    0.4960    magn:    0.0004    constr:    0.0000
     atom:   13    charge:    5.8019    magn:    1.1319    constr:    0.0000

     total cpu time spent up to now is      365.4 secs

     The total energy is the sum of the following terms:

     one-electron contribution =    -703.01130752 Ry
     hartree contribution      =     350.74408790 Ry
     xc contribution           =     -30.74525522 Ry
     ewald contribution        =     268.46058250 Ry

     total energy              =    -114.41567661 Ry
     Harris-Foulkes estimate   =    -114.41532977 Ry
     estimated scf accuracy    <       0.00242488 Ry

     total magnetization       =     1.00 Bohr mag/cell
     absolute magnetization    =     1.60 Bohr mag/cell

     iteration # 27     ecut=   120.00 Ry     beta=0.70
     CG style diagonalization
     ethr =  4.27E-06,  avg # of iterations =  3.5

     negative rho (up, down):  5.916E-07 2.321E-06
 
     Magnetic moment per site:
     atom:    1    charge:    0.8435    magn:   -0.0029    constr:    0.0000
     atom:    2    charge:    0.8452    magn:   -0.0034    constr:    0.0000
     atom:    3    charge:    0.8459    magn:   -0.0102    constr:    0.0000
     atom:    4    charge:    0.8426    magn:   -0.0092    constr:    0.0000
     atom:    5    charge:    0.8442    magn:   -0.0093    constr:    0.0000
     atom:    6    charge:    0.8459    magn:   -0.0105    constr:    0.0000
     atom:    7    charge:    0.4975    magn:    0.0003    constr:    0.0000
     atom:    8    charge:    0.4972    magn:    0.0003    constr:    0.0000
     atom:    9    charge:    0.4960    magn:    0.0004    constr:    0.0000
     atom:   10    charge:    0.4959    magn:    0.0004    constr:    0.0000
     atom:   11    charge:    0.4956    magn:    0.0004    constr:    0.0000
     atom:   12    charge:    0.4959    magn:    0.0004    constr:    0.0000
     atom:   13    charge:    5.8029    magn:    1.1246    constr:    0.0000

     total cpu time spent up to now is      374.1 secs

     The total energy is the sum of the following terms:

     one-electron contribution =    -702.95314123 Ry
     hartree contribution      =     350.73549043 Ry
     xc contribution           =     -30.74619338 Ry
     ewald contribution        =     268.46058250 Ry

     total energy              =    -114.41502408 Ry
     Harris-Foulkes estimate   =    -114.41584960 Ry
     estimated scf accuracy    <       0.00088330 Ry

     total magnetization       =     1.00 Bohr mag/cell
     absolute magnetization    =     1.59 Bohr mag/cell

     iteration # 28     ecut=   120.00 Ry     beta=0.70
     CG style diagonalization
     ethr =  2.39E-06,  avg # of iterations =  3.3

     negative rho (up, down):  5.523E-07 5.163E-07
 
     Magnetic moment per site:
     atom:    1    charge:    0.8435    magn:   -0.0032    constr:    0.0000
     atom:    2    charge:    0.8451    magn:   -0.0036    constr:    0.0000
     atom:    3    charge:    0.8460    magn:   -0.0099    constr:    0.0000
     atom:    4    charge:    0.8426    magn:   -0.0093    constr:    0.0000
     atom:    5    charge:    0.8442    magn:   -0.0094    constr:    0.0000
     atom:    6    charge:    0.8461    magn:   -0.0101    constr:    0.0000
     atom:    7    charge:    0.4974    magn:    0.0003    constr:    0.0000
     atom:    8    charge:    0.4972    magn:    0.0003    constr:    0.0000
     atom:    9    charge:    0.4959    magn:    0.0003    constr:    0.0000
     atom:   10    charge:    0.4959    magn:    0.0004    constr:    0.0000
     atom:   11    charge:    0.4956    magn:    0.0004    constr:    0.0000
     atom:   12    charge:    0.4959    magn:    0.0003    constr:    0.0000
     atom:   13    charge:    5.8027    magn:    1.1270    constr:    0.0000

     total cpu time spent up to now is      382.6 secs

     The total energy is the sum of the following terms:

     one-electron contribution =    -702.99117072 Ry
     hartree contribution      =     350.74657784 Ry
     xc contribution           =     -30.74189995 Ry
     ewald contribution        =     268.46058250 Ry

     total energy              =    -114.41562781 Ry
     Harris-Foulkes estimate   =    -114.41538115 Ry
     estimated scf accuracy    <       0.00174216 Ry

     total magnetization       =     1.00 Bohr mag/cell
     absolute magnetization    =     1.60 Bohr mag/cell

     iteration # 29     ecut=   120.00 Ry     beta=0.70
     CG style diagonalization
     ethr =  2.39E-06,  avg # of iterations =  3.1

     negative rho (up, down):  7.972E-08 1.034E-06
 
     Magnetic moment per site:
     atom:    1    charge:    0.8434    magn:   -0.0030    constr:    0.0000
     atom:    2    charge:    0.8449    magn:   -0.0034    constr:    0.0000
     atom:    3    charge:    0.8460    magn:   -0.0105    constr:    0.0000
     atom:    4    charge:    0.8426    magn:   -0.0092    constr:    0.0000
     atom:    5    charge:    0.8442    magn:   -0.0093    constr:    0.0000
     atom:    6    charge:    0.8462    magn:   -0.0107    constr:    0.0000
     atom:    7    charge:    0.4975    magn:    0.0002    constr:    0.0000
     atom:    8    charge:    0.4973    magn:    0.0002    constr:    0.0000
     atom:    9    charge:    0.4959    magn:    0.0004    constr:    0.0000
     atom:   10    charge:    0.4959    magn:    0.0004    constr:    0.0000
     atom:   11    charge:    0.4956    magn:    0.0004    constr:    0.0000
     atom:   12    charge:    0.4959    magn:    0.0004    constr:    0.0000
     atom:   13    charge:    5.8027    magn:    1.1284    constr:    0.0000

     total cpu time spent up to now is      390.6 secs

     The total energy is the sum of the following terms:

     one-electron contribution =    -702.95471084 Ry
     hartree contribution      =     350.77064945 Ry
     xc contribution           =     -30.74508691 Ry
     ewald contribution        =     268.46058250 Ry

     total energy              =    -114.41392783 Ry
     Harris-Foulkes estimate   =    -114.41573801 Ry
     estimated scf accuracy    <       0.00101886 Ry

     total magnetization       =     1.00 Bohr mag/cell
     absolute magnetization    =     1.60 Bohr mag/cell

     iteration # 30     ecut=   120.00 Ry     beta=0.70
     CG style diagonalization
     ethr =  2.39E-06,  avg # of iterations =  4.2

     negative rho (up, down):  3.117E-08 2.621E-07
 
     Magnetic moment per site:
     atom:    1    charge:    0.8434    magn:   -0.0035    constr:    0.0000
     atom:    2    charge:    0.8450    magn:   -0.0039    constr:    0.0000
     atom:    3    charge:    0.8459    magn:   -0.0098    constr:    0.0000
     atom:    4    charge:    0.8426    magn:   -0.0094    constr:    0.0000
     atom:    5    charge:    0.8442    magn:   -0.0095    constr:    0.0000
     atom:    6    charge:    0.8461    magn:   -0.0100    constr:    0.0000
     atom:    7    charge:    0.4975    magn:    0.0002    constr:    0.0000
     atom:    8    charge:    0.4973    magn:    0.0002    constr:    0.0000
     atom:    9    charge:    0.4959    magn:    0.0003    constr:    0.0000
     atom:   10    charge:    0.4959    magn:    0.0004    constr:    0.0000
     atom:   11    charge:    0.4956    magn:    0.0004    constr:    0.0000
     atom:   12    charge:    0.4959    magn:    0.0003    constr:    0.0000
     atom:   13    charge:    5.8027    magn:    1.1305    constr:    0.0000

     total cpu time spent up to now is      400.9 secs

     The total energy is the sum of the following terms:

     one-electron contribution =    -702.91864900 Ry
     hartree contribution      =     350.77315397 Ry
     xc contribution           =     -30.73887919 Ry
     ewald contribution        =     268.46058250 Ry

     total energy              =    -114.41683018 Ry
     Harris-Foulkes estimate   =    -114.41673028 Ry
     estimated scf accuracy    <       0.00038324 Ry

     total magnetization       =     1.00 Bohr mag/cell
     absolute magnetization    =     1.57 Bohr mag/cell

     iteration # 31     ecut=   120.00 Ry     beta=0.70
     CG style diagonalization
     ethr =  1.04E-06,  avg # of iterations =  3.7

     negative rho (up, down):  1.963E-09 1.540E-07
 
     Magnetic moment per site:
     atom:    1    charge:    0.8437    magn:   -0.0039    constr:    0.0000
     atom:    2    charge:    0.8452    magn:   -0.0043    constr:    0.0000
     atom:    3    charge:    0.8457    magn:   -0.0094    constr:    0.0000
     atom:    4    charge:    0.8428    magn:   -0.0098    constr:    0.0000
     atom:    5    charge:    0.8443    magn:   -0.0099    constr:    0.0000
     atom:    6    charge:    0.8458    magn:   -0.0096    constr:    0.0000
     atom:    7    charge:    0.4975    magn:    0.0002    constr:    0.0000
     atom:    8    charge:    0.4972    magn:    0.0002    constr:    0.0000
     atom:    9    charge:    0.4960    magn:    0.0003    constr:    0.0000
     atom:   10    charge:    0.4959    magn:    0.0003    constr:    0.0000
     atom:   11    charge:    0.4956    magn:    0.0003    constr:    0.0000
     atom:   12    charge:    0.4959    magn:    0.0003    constr:    0.0000
     atom:   13    charge:    5.8016    magn:    1.1354    constr:    0.0000

     total cpu time spent up to now is      410.2 secs

     The total energy is the sum of the following terms:

     one-electron contribution =    -702.89691480 Ry
     hartree contribution      =     350.75502083 Ry
     xc contribution           =     -30.73490560 Ry
     ewald contribution        =     268.46058250 Ry

     total energy              =    -114.41548820 Ry
     Harris-Foulkes estimate   =    -114.41698567 Ry
     estimated scf accuracy    <       0.00012064 Ry

     total magnetization       =     1.00 Bohr mag/cell
     absolute magnetization    =     1.57 Bohr mag/cell

     iteration # 32     ecut=   120.00 Ry     beta=0.70
     CG style diagonalization
     ethr =  3.26E-07,  avg # of iterations =  4.9

     negative rho (up, down):  7.442E-09 3.013E-08
 
     Magnetic moment per site:
     atom:    1    charge:    0.8436    magn:   -0.0039    constr:    0.0000
     atom:    2    charge:    0.8451    magn:   -0.0042    constr:    0.0000
     atom:    3    charge:    0.8456    magn:   -0.0093    constr:    0.0000
     atom:    4    charge:    0.8427    magn:   -0.0096    constr:    0.0000
     atom:    5    charge:    0.8442    magn:   -0.0095    constr:    0.0000
     atom:    6    charge:    0.8457    magn:   -0.0095    constr:    0.0000
     atom:    7    charge:    0.4976    magn:    0.0002    constr:    0.0000
     atom:    8    charge:    0.4973    magn:    0.0002    constr:    0.0000
     atom:    9    charge:    0.4960    magn:    0.0003    constr:    0.0000
     atom:   10    charge:    0.4959    magn:    0.0004    constr:    0.0000
     atom:   11    charge:    0.4956    magn:    0.0004    constr:    0.0000
     atom:   12    charge:    0.4959    magn:    0.0003    constr:    0.0000
     atom:   13    charge:    5.8034    magn:    1.1302    constr:    0.0000

     total cpu time spent up to now is      422.1 secs

     The total energy is the sum of the following terms:

     one-electron contribution =    -702.89485633 Ry
     hartree contribution      =     350.76811341 Ry
     xc contribution           =     -30.73029006 Ry
     ewald contribution        =     268.46058250 Ry

     total energy              =    -114.41578056 Ry
     Harris-Foulkes estimate   =    -114.41639272 Ry
     estimated scf accuracy    <       0.00038566 Ry

     total magnetization       =     1.00 Bohr mag/cell
     absolute magnetization    =     1.58 Bohr mag/cell

     iteration # 33     ecut=   120.00 Ry     beta=0.70
     CG style diagonalization
     ethr =  3.26E-07,  avg # of iterations =  4.5

     negative rho (up, down):  1.189E-10 4.992E-08
 
     Magnetic moment per site:
     atom:    1    charge:    0.8434    magn:   -0.0035    constr:    0.0000
     atom:    2    charge:    0.8449    magn:   -0.0038    constr:    0.0000
     atom:    3    charge:    0.8458    magn:   -0.0102    constr:    0.0000
     atom:    4    charge:    0.8425    magn:   -0.0092    constr:    0.0000
     atom:    5    charge:    0.8440    magn:   -0.0093    constr:    0.0000
     atom:    6    charge:    0.8459    magn:   -0.0104    constr:    0.0000
     atom:    7    charge:    0.4976    magn:    0.0002    constr:    0.0000
     atom:    8    charge:    0.4974    magn:    0.0002    constr:    0.0000
     atom:    9    charge:    0.4960    magn:    0.0004    constr:    0.0000
     atom:   10    charge:    0.4960    magn:    0.0004    constr:    0.0000
     atom:   11    charge:    0.4957    magn:    0.0004    constr:    0.0000
     atom:   12    charge:    0.4960    magn:    0.0004    constr:    0.0000
     atom:   13    charge:    5.8046    magn:    1.1315    constr:    0.0000

     total cpu time spent up to now is      433.3 secs

     The total energy is the sum of the following terms:

     one-electron contribution =    -702.91313930 Ry
     hartree contribution      =     350.78226236 Ry
     xc contribution           =     -30.73656900 Ry
     ewald contribution        =     268.46058250 Ry

     total energy              =    -114.41639051 Ry
     Harris-Foulkes estimate   =    -114.41682339 Ry
     estimated scf accuracy    <       0.00049145 Ry

     total magnetization       =     1.00 Bohr mag/cell
     absolute magnetization    =     1.59 Bohr mag/cell

     iteration # 34     ecut=   120.00 Ry     beta=0.70
     CG style diagonalization
     ethr =  3.26E-07,  avg # of iterations =  4.9

     negative rho (up, down):  0.000E+00 2.086E-07
 
     Magnetic moment per site:
     atom:    1    charge:    0.8432    magn:   -0.0035    constr:    0.0000
     atom:    2    charge:    0.8447    magn:   -0.0037    constr:    0.0000
     atom:    3    charge:    0.8457    magn:   -0.0107    constr:    0.0000
     atom:    4    charge:    0.8423    magn:   -0.0091    constr:    0.0000
     atom:    5    charge:    0.8438    magn:   -0.0092    constr:    0.0000
     atom:    6    charge:    0.8458    magn:   -0.0108    constr:    0.0000
     atom:    7    charge:    0.4978    magn:    0.0002    constr:    0.0000
     atom:    8    charge:    0.4976    magn:    0.0002    constr:    0.0000
     atom:    9    charge:    0.4960    magn:    0.0004    constr:    0.0000
     atom:   10    charge:    0.4960    magn:    0.0004    constr:    0.0000
     atom:   11    charge:    0.4958    magn:    0.0004    constr:    0.0000
     atom:   12    charge:    0.4960    magn:    0.0004    constr:    0.0000
     atom:   13    charge:    5.8058    magn:    1.1339    constr:    0.0000

     total cpu time spent up to now is      445.2 secs

     The total energy is the sum of the following terms:

     one-electron contribution =    -702.92524062 Ry
     hartree contribution      =     350.79363833 Ry
     xc contribution           =     -30.74333349 Ry
     ewald contribution        =     268.46058250 Ry

     total energy              =    -114.41648305 Ry
     Harris-Foulkes estimate   =    -114.41738427 Ry
     estimated scf accuracy    <       0.00005908 Ry

     total magnetization       =     1.00 Bohr mag/cell
     absolute magnetization    =     1.58 Bohr mag/cell

     iteration # 35     ecut=   120.00 Ry     beta=0.70
     CG style diagonalization
     ethr =  1.60E-07,  avg # of iterations =  5.3
 
     Magnetic moment per site:
     atom:    1    charge:    0.8434    magn:   -0.0039    constr:    0.0000
     atom:    2    charge:    0.8449    magn:   -0.0040    constr:    0.0000
     atom:    3    charge:    0.8455    magn:   -0.0102    constr:    0.0000
     atom:    4    charge:    0.8424    magn:   -0.0095    constr:    0.0000
     atom:    5    charge:    0.8439    magn:   -0.0096    constr:    0.0000
     atom:    6    charge:    0.8455    magn:   -0.0103    constr:    0.0000
     atom:    7    charge:    0.4978    magn:    0.0002    constr:    0.0000
     atom:    8    charge:    0.4976    magn:    0.0002    constr:    0.0000
     atom:    9    charge:    0.4961    magn:    0.0004    constr:    0.0000
     atom:   10    charge:    0.4960    magn:    0.0004    constr:    0.0000
     atom:   11    charge:    0.4958    magn:    0.0004    constr:    0.0000
     atom:   12    charge:    0.4961    magn:    0.0004    constr:    0.0000
     atom:   13    charge:    5.8045    magn:    1.1363    constr:    0.0000

     total cpu time spent up to now is      458.0 secs

     The total energy is the sum of the following terms:

     one-electron contribution =    -702.93677938 Ry
     hartree contribution      =     350.78047089 Ry
     xc contribution           =     -30.73636524 Ry
     ewald contribution        =     268.46058250 Ry

     total energy              =    -114.41719242 Ry
     Harris-Foulkes estimate   =    -114.41744831 Ry
     estimated scf accuracy    <       0.00016088 Ry

     total magnetization       =     1.00 Bohr mag/cell
     absolute magnetization    =     1.57 Bohr mag/cell

     iteration # 36     ecut=   120.00 Ry     beta=0.70
     CG style diagonalization
     ethr =  1.60E-07,  avg # of iterations =  4.2
 
     Magnetic moment per site:
     atom:    1    charge:    0.8433    magn:   -0.0038    constr:    0.0000
     atom:    2    charge:    0.8448    magn:   -0.0039    constr:    0.0000
     atom:    3    charge:    0.8455    magn:   -0.0102    constr:    0.0000
     atom:    4    charge:    0.8425    magn:   -0.0094    constr:    0.0000
     atom:    5    charge:    0.8439    magn:   -0.0094    constr:    0.0000
     atom:    6    charge:    0.8455    magn:   -0.0103    constr:    0.0000
     atom:    7    charge:    0.4979    magn:    0.0002    constr:    0.0000
     atom:    8    charge:    0.4976    magn:    0.0002    constr:    0.0000
     atom:    9    charge:    0.4961    magn:    0.0004    constr:    0.0000
     atom:   10    charge:    0.4960    magn:    0.0004    constr:    0.0000
     atom:   11    charge:    0.4958    magn:    0.0004    constr:    0.0000
     atom:   12    charge:    0.4961    magn:    0.0004    constr:    0.0000
     atom:   13    charge:    5.8054    magn:    1.1344    constr:    0.0000

     total cpu time spent up to now is      468.4 secs

     The total energy is the sum of the following terms:

     one-electron contribution =    -702.92739625 Ry
     hartree contribution      =     350.79150729 Ry
     xc contribution           =     -30.73923581 Ry
     ewald contribution        =     268.46058250 Ry

     total energy              =    -114.41725623 Ry
     Harris-Foulkes estimate   =    -114.41747564 Ry
     estimated scf accuracy    <       0.00002840 Ry

     total magnetization       =     1.00 Bohr mag/cell
     absolute magnetization    =     1.57 Bohr mag/cell

     iteration # 37     ecut=   120.00 Ry     beta=0.70
     CG style diagonalization
     ethr =  7.68E-08,  avg # of iterations =  4.5
 
     Magnetic moment per site:
     atom:    1    charge:    0.8434    magn:   -0.0039    constr:    0.0000
     atom:    2    charge:    0.8449    magn:   -0.0040    constr:    0.0000
     atom:    3    charge:    0.8455    magn:   -0.0101    constr:    0.0000
     atom:    4    charge:    0.8425    magn:   -0.0095    constr:    0.0000
     atom:    5    charge:    0.8439    magn:   -0.0095    constr:    0.0000
     atom:    6    charge:    0.8455    magn:   -0.0102    constr:    0.0000
     atom:    7    charge:    0.4979    magn:    0.0002    constr:    0.0000
     atom:    8    charge:    0.4976    magn:    0.0002    constr:    0.0000
     atom:    9    charge:    0.4961    magn:    0.0004    constr:    0.0000
     atom:   10    charge:    0.4960    magn:    0.0004    constr:    0.0000
     atom:   11    charge:    0.4958    magn:    0.0004    constr:    0.0000
     atom:   12    charge:    0.4961    magn:    0.0004    constr:    0.0000
     atom:   13    charge:    5.8053    magn:    1.1345    constr:    0.0000

     total cpu time spent up to now is      479.5 secs

     The total energy is the sum of the following terms:

     one-electron contribution =    -702.92848929 Ry
     hartree contribution      =     350.78867770 Ry
     xc contribution           =     -30.73740661 Ry
     ewald contribution        =     268.46058250 Ry

     total energy              =    -114.41750854 Ry
     Harris-Foulkes estimate   =    -114.41752358 Ry
     estimated scf accuracy    <       0.00000854 Ry

     total magnetization       =     1.00 Bohr mag/cell
     absolute magnetization    =     1.57 Bohr mag/cell

     iteration # 38     ecut=   120.00 Ry     beta=0.70
     CG style diagonalization
     ethr =  2.31E-08,  avg # of iterations =  4.0
 
     Magnetic moment per site:
     atom:    1    charge:    0.8433    magn:   -0.0039    constr:    0.0000
     atom:    2    charge:    0.8448    magn:   -0.0040    constr:    0.0000
     atom:    3    charge:    0.8455    magn:   -0.0102    constr:    0.0000
     atom:    4    charge:    0.8424    magn:   -0.0095    constr:    0.0000
     atom:    5    charge:    0.8439    magn:   -0.0095    constr:    0.0000
     atom:    6    charge:    0.8455    magn:   -0.0102    constr:    0.0000
     atom:    7    charge:    0.4979    magn:    0.0002    constr:    0.0000
     atom:    8    charge:    0.4976    magn:    0.0002    constr:    0.0000
     atom:    9    charge:    0.4961    magn:    0.0004    constr:    0.0000
     atom:   10    charge:    0.4960    magn:    0.0004    constr:    0.0000
     atom:   11    charge:    0.4958    magn:    0.0004    constr:    0.0000
     atom:   12    charge:    0.4961    magn:    0.0004    constr:    0.0000
     atom:   13    charge:    5.8056    magn:    1.1346    constr:    0.0000

     total cpu time spent up to now is      489.4 secs

     The total energy is the sum of the following terms:

     one-electron contribution =    -702.92925913 Ry
     hartree contribution      =     350.79069375 Ry
     xc contribution           =     -30.73811741 Ry
     ewald contribution        =     268.46058250 Ry

     total energy              =    -114.41750607 Ry
     Harris-Foulkes estimate   =    -114.41752289 Ry
     estimated scf accuracy    <       0.00000411 Ry

     total magnetization       =     1.00 Bohr mag/cell
     absolute magnetization    =     1.57 Bohr mag/cell

[...]
 
     Magnetic moment per site:
     atom:    1    charge:    0.8433    magn:   -0.0040    constr:    0.0000
     atom:    2    charge:    0.8448    magn:   -0.0040    constr:    0.0000
     atom:    3    charge:    0.8455    magn:   -0.0100    constr:    0.0000
     atom:    4    charge:    0.8424    magn:   -0.0095    constr:    0.0000
     atom:    5    charge:    0.8439    magn:   -0.0095    constr:    0.0000
     atom:    6    charge:    0.8455    magn:   -0.0100    constr:    0.0000
     atom:    7    charge:    0.4979    magn:    0.0002    constr:    0.0000
     atom:    8    charge:    0.4977    magn:    0.0002    constr:    0.0000
     atom:    9    charge:    0.4961    magn:    0.0004    constr:    0.0000
     atom:   10    charge:    0.4960    magn:    0.0004    constr:    0.0000
     atom:   11    charge:    0.4958    magn:    0.0004    constr:    0.0000
     atom:   12    charge:    0.4961    magn:    0.0004    constr:    0.0000
     atom:   13    charge:    5.8059    magn:    1.1336    constr:    0.0000

     total cpu time spent up to now is      767.0 secs

     The total energy is the sum of the following terms:

     one-electron contribution =    -702.93367537 Ry
     hartree contribution      =     350.79084428 Ry
     xc contribution           =     -30.73788275 Ry
     ewald contribution        =     268.46058250 Ry

     total energy              =    -114.41500785 Ry
     Harris-Foulkes estimate   =    -114.41500799 Ry
     estimated scf accuracy    <       0.00000041 Ry

     total magnetization       =     1.00 Bohr mag/cell
     absolute magnetization    =     1.57 Bohr mag/cell

     iteration #  3     ecut=   120.00 Ry     beta=0.70
     CG style diagonalization
     ethr =  2.85E-10,  avg # of iterations =  3.5
 
     Magnetic moment per site:
     atom:    1    charge:    0.8433    magn:   -0.0040    constr:    0.0000
     atom:    2    charge:    0.8448    magn:   -0.0040    constr:    0.0000
     atom:    3    charge:    0.8455    magn:   -0.0100    constr:    0.0000
     atom:    4    charge:    0.8424    magn:   -0.0095    constr:    0.0000
     atom:    5    charge:    0.8439    magn:   -0.0095    constr:    0.0000
     atom:    6    charge:    0.8455    magn:   -0.0100    constr:    0.0000
     atom:    7    charge:    0.4979    magn:    0.0002    constr:    0.0000
     atom:    8    charge:    0.4977    magn:    0.0002    constr:    0.0000
     atom:    9    charge:    0.4961    magn:    0.0004    constr:    0.0000
     atom:   10    charge:    0.4960    magn:    0.0004    constr:    0.0000
     atom:   11    charge:    0.4958    magn:    0.0004    constr:    0.0000
     atom:   12    charge:    0.4961    magn:    0.0004    constr:    0.0000
     atom:   13    charge:    5.8060    magn:    1.1336    constr:    0.0000

     total cpu time spent up to now is      775.8 secs

     The total energy is the sum of the following terms:

     one-electron contribution =    -702.92689804 Ry
     hartree contribution      =     350.79135941 Ry
     xc contribution           =     -30.73796494 Ry
     ewald contribution        =     268.46058250 Ry

     total energy              =    -114.41500788 Ry
     Harris-Foulkes estimate   =    -114.41500800 Ry
     estimated scf accuracy    <       0.00000081 Ry

     total magnetization       =     1.00 Bohr mag/cell
     absolute magnetization    =     1.57 Bohr mag/cell

     iteration #  4     ecut=   120.00 Ry     beta=0.70
     CG style diagonalization
     ethr =  2.85E-10,  avg # of iterations =  3.1
 
     Magnetic moment per site:
     atom:    1    charge:    0.8433    magn:   -0.0040    constr:    0.0000
     atom:    2    charge:    0.8448    magn:   -0.0040    constr:    0.0000
     atom:    3    charge:    0.8455    magn:   -0.0100    constr:    0.0000
     atom:    4    charge:    0.8425    magn:   -0.0095    constr:    0.0000
     atom:    5    charge:    0.8439    magn:   -0.0095    constr:    0.0000
     atom:    6    charge:    0.8455    magn:   -0.0100    constr:    0.0000
     atom:    7    charge:    0.4979    magn:    0.0002    constr:    0.0000
     atom:    8    charge:    0.4977    magn:    0.0002    constr:    0.0000
     atom:    9    charge:    0.4961    magn:    0.0004    constr:    0.0000
     atom:   10    charge:    0.4960    magn:    0.0004    constr:    0.0000
     atom:   11    charge:    0.4958    magn:    0.0004    constr:    0.0000
     atom:   12    charge:    0.4961    magn:    0.0004    constr:    0.0000
     atom:   13    charge:    5.8059    magn:    1.1336    constr:    0.0000

     total cpu time spent up to now is      783.7 secs

     End of self-consistent calculation

 ------ SPIN UP ------------


          k = 0.0000 0.0000 0.0000 (****** PWs)   bands (ev):

   -25.3286 -22.5885 -22.5422 -19.5759 -19.0114 -19.0049 -17.1748 -15.5046
   -15.0591 -14.5205 -14.4852 -13.2339 -12.5057 -12.5044 -10.5570 -10.5014
    -8.0637  -6.7417  -6.7290  -5.4278  -5.3967  -5.2845  -4.8771  -4.8700
    -4.3480  -4.3441  -4.3266  -3.7736  -3.7623  -3.6073  -3.5222  -3.3787
    -3.2399  -3.0386  -3.0375  -2.9389  -2.9239  -2.6720  -2.6705  -2.5754

     occupation numbers 
     1.0000   1.0000   1.0000   1.0000   1.0000   1.0000   1.0000   1.0000
     1.0000   1.0000   1.0000   1.0000   1.0000   1.0000   1.0000   1.0000
     1.0000   1.0000   1.0000   0.0000   0.0000   0.0000   0.0000   0.0000
     0.0000   0.0000   0.0000   0.0000   0.0000   0.0000   0.0000   0.0000
     0.0000   0.0000   0.0000   0.0000   0.0000   0.0000   0.0000   0.0000

 ------ SPIN DOWN ----------


          k = 0.0000 0.0000 0.0000 (****** PWs)   bands (ev):

   -25.3687 -22.6308 -22.5960 -19.0521 -19.0510 -18.0166 -17.1899 -15.5398
   -15.0777 -14.5308 -14.4988 -13.3369 -12.5210 -12.5181 -10.6669 -10.6443
    -6.1403  -6.1155  -5.5059  -5.4920  -5.3603  -5.3131  -4.9422  -4.9118
    -4.4046  -4.4043  -4.3970  -3.8496  -3.8244  -3.6707  -3.5853  -3.4220
    -3.2931  -3.1096  -3.1090  -2.9810  -2.9546  -2.7312  -2.7292  -2.6421

     occupation numbers 
     1.0000   1.0000   1.0000   1.0000   1.0000   1.0000   1.0000   1.0000
     1.0000   1.0000   1.0000   1.0000   1.0000   1.0000   1.0000   1.0000
     1.0000   1.0000   0.0000   0.0000   0.0000   0.0000   0.0000   0.0000
     0.0000   0.0000   0.0000   0.0000   0.0000   0.0000   0.0000   0.0000
     0.0000   0.0000   0.0000   0.0000   0.0000   0.0000   0.0000   0.0000

     highest occupied, lowest unoccupied level (ev):    -6.1155   -5.5059

     The total energy is the sum of the following terms:

     one-electron contribution =    -702.92935293 Ry
     hartree contribution      =     350.79173897 Ry
     xc contribution           =     -30.73797647 Ry
     ewald contribution        =     268.46058250 Ry

!    total energy              =    -114.41500793 Ry
     Harris-Foulkes estimate   =    -114.41500794 Ry
     estimated scf accuracy    <          3.1E-09 Ry

     The total energy is the sum of the following terms:

     one-electron contribution =    -702.92935293 Ry
     hartree contribution      =     350.79173897 Ry
     xc contribution           =     -30.73797647 Ry
     ewald contribution        =     268.46058250 Ry

     total magnetization       =     1.00 Bohr mag/cell
     absolute magnetization    =     1.57 Bohr mag/cell

     convergence has been achieved in   4 iterations
 
     Using Hirshfeld
        Amplitude [Ry a.u.] : -3.8767E-01
        Acceptor Fragment start :          13
        Acceptor Fragment end   :          13
        Donor Fragment start :           1
        Donor Fragment end   :          12
 
 
     Using Hirshfeld
        Amplitude [Ry a.u.] : -3.8767E-01
        Acceptor Fragment start :          13
        Acceptor Fragment end   :          13
        Donor Fragment start :           1
        Donor Fragment end   :          12
 
     E field correction              :  0.9304236932169022E+01 Ry    
 
     Donor charge                    :     -0.3496308067952754 e     
     Acceptor charge                 :      0.6504708616492527 e     
     Difference of charges           :     -1.0001016684445467 e     
 
     epcdft_thr                      :  0.1000000000000000E-03 e     
     Surplus(+)/deficit(-) charge    : -0.1016684445467320E-03 e     
 
     -----------------------------------------------
 
                      SCF converged but...
 
     electron localization condition NOT satisfied
     restarting scf with different applied potential
 
     New field Amp                   : -0.3876643960779202E+00 Ry    
     charge density from previous step
 
     Using Hirshfeld
        Amplitude [Ry a.u.] : -3.8766E-01
        Acceptor Fragment start :          13
        Acceptor Fragment end   :          13
        Donor Fragment start :           1
        Donor Fragment end   :          12
 

     total cpu time spent up to now is      807.3 secs

     per-process dynamical memory:    81.9 Mb

     Self-consistent Calculation

     iteration #  1     ecut=   120.00 Ry     beta=0.70
     CG style diagonalization
     ethr =  2.85E-10,  avg # of iterations =  2.6
 
     Magnetic moment per site:
     atom:    1    charge:    0.8433    magn:   -0.0040    constr:    0.0000
     atom:    2    charge:    0.8448    magn:   -0.0040    constr:    0.0000
     atom:    3    charge:    0.8455    magn:   -0.0100    constr:    0.0000
     atom:    4    charge:    0.8424    magn:   -0.0095    constr:    0.0000
     atom:    5    charge:    0.8439    magn:   -0.0095    constr:    0.0000
     atom:    6    charge:    0.8455    magn:   -0.0100    constr:    0.0000
     atom:    7    charge:    0.4979    magn:    0.0002    constr:    0.0000
     atom:    8    charge:    0.4977    magn:    0.0002    constr:    0.0000
     atom:    9    charge:    0.4961    magn:    0.0004    constr:    0.0000
     atom:   10    charge:    0.4960    magn:    0.0004    constr:    0.0000
     atom:   11    charge:    0.4958    magn:    0.0004    constr:    0.0000
     atom:   12    charge:    0.4961    magn:    0.0004    constr:    0.0000
     atom:   13    charge:    5.8065    magn:    1.1332    constr:    0.0000

     total cpu time spent up to now is      815.7 secs

     The total energy is the sum of the following terms:

     one-electron contribution =    -702.92599838 Ry
     hartree contribution      =     350.78960491 Ry
     xc contribution           =     -30.73801402 Ry
     ewald contribution        =     268.46058250 Ry

     total energy              =    -114.41475560 Ry
     Harris-Foulkes estimate   =    -114.41475596 Ry
     estimated scf accuracy    <       0.00000046 Ry

     total magnetization       =     1.00 Bohr mag/cell
     absolute magnetization    =     1.57 Bohr mag/cell

     iteration #  2     ecut=   120.00 Ry     beta=0.70
     CG style diagonalization
     ethr =  1.24E-09,  avg # of iterations =  4.2
 
     Magnetic moment per site:
     atom:    1    charge:    0.8433    magn:   -0.0040    constr:    0.0000
     atom:    2    charge:    0.8448    magn:   -0.0040    constr:    0.0000
     atom:    3    charge:    0.8455    magn:   -0.0100    constr:    0.0000
     atom:    4    charge:    0.8425    magn:   -0.0095    constr:    0.0000
     atom:    5    charge:    0.8439    magn:   -0.0095    constr:    0.0000
     atom:    6    charge:    0.8455    magn:   -0.0100    constr:    0.0000
     atom:    7    charge:    0.4979    magn:    0.0002    constr:    0.0000
     atom:    8    charge:    0.4977    magn:    0.0002    constr:    0.0000
     atom:    9    charge:    0.4961    magn:    0.0004    constr:    0.0000
     atom:   10    charge:    0.4960    magn:    0.0004    constr:    0.0000
     atom:   11    charge:    0.4958    magn:    0.0004    constr:    0.0000
     atom:   12    charge:    0.4961    magn:    0.0004    constr:    0.0000
     atom:   13    charge:    5.8060    magn:    1.1336    constr:    0.0000

     total cpu time spent up to now is      826.1 secs

     The total energy is the sum of the following terms:

     one-electron contribution =    -702.94855658 Ry
     hartree contribution      =     350.79129778 Ry
     xc contribution           =     -30.73795919 Ry
     ewald contribution        =     268.46058250 Ry

     total energy              =    -114.41475416 Ry
     Harris-Foulkes estimate   =    -114.41475787 Ry
     estimated scf accuracy    <       0.00002693 Ry

     total magnetization       =     1.00 Bohr mag/cell
     absolute magnetization    =     1.58 Bohr mag/cell

     iteration #  3     ecut=   120.00 Ry     beta=0.70
     CG style diagonalization
     ethr =  1.24E-09,  avg # of iterations =  3.9
 
     Magnetic moment per site:
     atom:    1    charge:    0.8433    magn:   -0.0040    constr:    0.0000
     atom:    2    charge:    0.8448    magn:   -0.0040    constr:    0.0000
     atom:    3    charge:    0.8455    magn:   -0.0100    constr:    0.0000
     atom:    4    charge:    0.8425    magn:   -0.0095    constr:    0.0000
     atom:    5    charge:    0.8439    magn:   -0.0095    constr:    0.0000
     atom:    6    charge:    0.8455    magn:   -0.0100    constr:    0.0000
     atom:    7    charge:    0.4979    magn:    0.0002    constr:    0.0000
     atom:    8    charge:    0.4976    magn:    0.0002    constr:    0.0000
     atom:    9    charge:    0.4961    magn:    0.0004    constr:    0.0000
     atom:   10    charge:    0.4960    magn:    0.0004    constr:    0.0000
     atom:   11    charge:    0.4958    magn:    0.0004    constr:    0.0000
     atom:   12    charge:    0.4961    magn:    0.0004    constr:    0.0000
     atom:   13    charge:    5.8060    magn:    1.1336    constr:    0.0000

     total cpu time spent up to now is      835.6 secs

     End of self-consistent calculation

 ------ SPIN UP ------------


          k = 0.0000 0.0000 0.0000 (****** PWs)   bands (ev):

   -25.3285 -22.5884 -22.5421 -19.5760 -19.0113 -19.0048 -17.1747 -15.5045
   -15.0590 -14.5204 -14.4851 -13.2338 -12.5056 -12.5043 -10.5569 -10.5013
    -8.0638  -6.7418  -6.7291  -5.4277  -5.3966  -5.2844  -4.8769  -4.8698
    -4.3478  -4.3439  -4.3265  -3.7734  -3.7621  -3.6072  -3.5221  -3.3786
    -3.2397  -3.0384  -3.0373  -2.9387  -2.9238  -2.6718  -2.6703  -2.5753

     occupation numbers 
     1.0000   1.0000   1.0000   1.0000   1.0000   1.0000   1.0000   1.0000
     1.0000   1.0000   1.0000   1.0000   1.0000   1.0000   1.0000   1.0000
     1.0000   1.0000   1.0000   0.0000   0.0000   0.0000   0.0000   0.0000
     0.0000   0.0000   0.0000   0.0000   0.0000   0.0000   0.0000   0.0000
     0.0000   0.0000   0.0000   0.0000   0.0000   0.0000   0.0000   0.0000

 ------ SPIN DOWN ----------


          k = 0.0000 0.0000 0.0000 (****** PWs)   bands (ev):

   -25.3686 -22.6307 -22.5959 -19.0521 -19.0509 -18.0166 -17.1898 -15.5397
   -15.0777 -14.5307 -14.4987 -13.3368 -12.5209 -12.5180 -10.6668 -10.6442
    -6.1402  -6.1155  -5.5058  -5.4919  -5.3603  -5.3130  -4.9420  -4.9117
    -4.4045  -4.4042  -4.3969  -3.8495  -3.8243  -3.6706  -3.5852  -3.4219
    -3.2930  -3.1095  -3.1089  -2.9809  -2.9545  -2.7311  -2.7291  -2.6420

     occupation numbers 
     1.0000   1.0000   1.0000   1.0000   1.0000   1.0000   1.0000   1.0000
     1.0000   1.0000   1.0000   1.0000   1.0000   1.0000   1.0000   1.0000
     1.0000   1.0000   0.0000   0.0000   0.0000   0.0000   0.0000   0.0000
     0.0000   0.0000   0.0000   0.0000   0.0000   0.0000   0.0000   0.0000
     0.0000   0.0000   0.0000   0.0000   0.0000   0.0000   0.0000   0.0000

     highest occupied, lowest unoccupied level (ev):    -6.1155   -5.5058

     The total energy is the sum of the following terms:

     one-electron contribution =    -702.92939194 Ry
     hartree contribution      =     350.79207674 Ry
     xc contribution           =     -30.73802322 Ry
     ewald contribution        =     268.46058250 Ry

!    total energy              =    -114.41475592 Ry
     Harris-Foulkes estimate   =    -114.41475593 Ry
     estimated scf accuracy    <          3.0E-09 Ry

     The total energy is the sum of the following terms:

     one-electron contribution =    -702.92939194 Ry
     hartree contribution      =     350.79207674 Ry
     xc contribution           =     -30.73802322 Ry
     ewald contribution        =     268.46058250 Ry

     total magnetization       =     1.00 Bohr mag/cell
     absolute magnetization    =     1.57 Bohr mag/cell

     convergence has been achieved in   3 iterations
 
     Using Hirshfeld
        Amplitude [Ry a.u.] : -3.8766E-01
        Acceptor Fragment start :          13
        Acceptor Fragment end   :          13
        Donor Fragment start :           1
        Donor Fragment end   :          12
 
 
     Using Hirshfeld
        Amplitude [Ry a.u.] : -3.8766E-01
        Acceptor Fragment start :          13
        Acceptor Fragment end   :          13
        Donor Fragment start :           1
        Donor Fragment end   :          12
 
     E field correction              :  0.9303949861981906E+01 Ry    
 
     Donor charge                    :     -0.3495845492331107 e     
     Acceptor charge                 :      0.6504266875786016 e     
     Difference of charges           :     -1.0000112368117051 e     

     Writing output data file right.save
 
     init_run     :     71.60s CPU     71.60s WALL (       1 calls)
     electrons    :    706.81s CPU    706.81s WALL (       5 calls)
     update_pot   :      4.82s CPU      4.82s WALL (       4 calls)

     Called by init_run:
     wfcinit      :      8.42s CPU      8.42s WALL (       1 calls)
     potinit      :      3.01s CPU      3.01s WALL (       1 calls)

     Called by electrons:
     c_bands      :    516.45s CPU    516.45s WALL (      61 calls)
     sum_band     :     35.15s CPU     35.15s WALL (      61 calls)
     v_of_rho     :     78.05s CPU     78.05s WALL (      66 calls)
     v_h          :      1.47s CPU      1.47s WALL (      66 calls)
     v_xc         :     76.58s CPU     76.58s WALL (      66 calls)
     mix_rho      :      4.55s CPU      4.55s WALL (      61 calls)

     Called by c_bands:
     init_us_2    :      2.43s CPU      2.43s WALL (     246 calls)
     rcgdiagg     :    441.10s CPU    441.11s WALL (     122 calls)
     wfcrot       :     76.24s CPU     76.24s WALL (     114 calls)

     Called by sum_band:

     Called by *cgdiagg:
     h_psi        :    446.31s CPU    446.31s WALL (   16808 calls)
     rdiaghg      :      8.15s CPU      8.15s WALL (     114 calls)
     rdiaghg:chol :      0.64s CPU      0.64s WALL (     114 calls)
     rdiaghg:inve :      0.11s CPU      0.11s WALL (     114 calls)
     rdiaghg:para :      0.61s CPU      0.61s WALL (     228 calls)

     Called by h_psi:
     h_psi:vloc   :    372.05s CPU    372.05s WALL (   16808 calls)
     h_psi:vnl    :     73.67s CPU     73.67s WALL (   16808 calls)
     add_vuspsi   :     46.38s CPU     46.40s WALL (   16808 calls)

     General routines
     calbec       :     35.76s CPU     35.80s WALL (   33502 calls)
     fft          :     71.76s CPU     71.76s WALL (    4488 calls)
     fftw         :    352.55s CPU    352.56s WALL (   40724 calls)
 
     Parallel routines
     fft_scatter  :    175.75s CPU    175.79s WALL (   45212 calls)
 
     PWSCF        : 15m38.53s CPU    15m38.53s WALL

 
   This run was terminated on:  16:21: 4  20Aug2015            

=------------------------------------------------------------------------------=
   JOB DONE.
=------------------------------------------------------------------------------=
2015-08-20 16:21:21.704 (INFO ) [0xfff97dbc410] CET-02440-13771-128:1292208:ibm.runjob.client.Job: exited with status 0
2015-08-20 16:21:21.705 (INFO ) [0xfff97dbc410] tatu.runjob.client: task exited with status 0
2015-08-20 16:21:21.705 (INFO ) [0xfff8aac34e0] 17612:tatu.runjob.monitor: monitor terminating
2015-08-20 16:21:21.712 (INFO ) [0xfff97dbc410] tatu.runjob.client: monitor completed
