2015-08-20 00:05:36.243 (INFO ) [0xfffa301c410] ibm.runjob.AbstractOptions: using properties file /bgsys/local/etc/bg.properties
2015-08-20 00:05:36.244 (INFO ) [0xfffa301c410] ibm.runjob.AbstractOptions: max open file descriptors: 65536
2015-08-20 00:05:36.244 (INFO ) [0xfffa301c410] ibm.runjob.AbstractOptions: core file limit: 18446744073709551615
2015-08-20 00:05:36.246 (INFO ) [0xfffa301c410] 12670:tatu.runjob.client: scheduler job id is 563766
2015-08-20 00:05:36.253 (INFO ) [0xfff8c0234e0] 12670:tatu.runjob.monitor: monitor started
2015-08-20 00:05:40.062 (INFO ) [0xfff8c0234e0] 12670:tatu.runjob.monitor: task record 1232244 created
2015-08-20 00:05:40.063 (INFO ) [0xfffa301c410] CET-42400-53731-128:12670:ibm.runjob.client.options.Parser: set local socket to runjob_mux from properties file
2015-08-20 00:05:42.534 (INFO ) [0xfffa301c410] CET-42400-53731-128:1291036:ibm.runjob.client.Job: job 1291036 started

     Program PWSCF v.5.1.1 starts on 20Aug2015 at  0: 5:42 

     This program is part of the open-source Quantum ESPRESSO suite
     for quantum simulation of materials; please cite
         "P. Giannozzi et al., J. Phys.:Condens. Matter 21 395502 (2009);
          URL http://www.quantum-espresso.org", 
     in publications or presentations arising from this work. More details at
     http://www.quantum-espresso.org/quote

     Parallel version (MPI & OpenMP), running on     512 processor cores
     Number of MPI processes:               512
     Threads/MPI process:                     1
     R & G space division:  proc/nbgrp/npool/nimage =     512
     Waiting for input...
     Reading input from standard input

     Current dimensions of program PWSCF are:
     Max number of different atomic species (ntypx) = 10
     Max number of k-points (npk) =  40000
     Max angular momentum in pseudopotentials (lmaxx) =  3
               file C.pbe-mt_fhi.UPF: wavefunction(s)  4f renormalized
               file H.pbe-mt_fhi.UPF: wavefunction(s)  2p 4f renormalized
               file Cl.pbe-mt_fhi.UPF: wavefunction(s)  4f renormalized

     gamma-point specific algorithms are used
     Message from routine setup:
     the system is metallic, specify occupations

     Subspace diagonalization in iterative solution of the eigenvalue problem:
     scalapack distributed-memory algorithm (size of sub-group: 16* 16 procs)

 
     Parallelization info
     --------------------
     sticks:   dense  smooth     PW     G-vecs:    dense   smooth      PW
     Min          21      21      4                 1786     1786     192
     Max          24      24      6                 1810     1810     250
     Sum       11449   11449   2869               922329   922329  115313
     Tot        5725    5725   1435
 
     Generating pointlists ...
     new r_m :   0.0373 (alat units)  0.8450 (a.u.) for type    1
     new r_m :   0.0373 (alat units)  0.8450 (a.u.) for type    2
     new r_m :   0.1059 (alat units)  2.4011 (a.u.) for type    3


     bravais-lattice index     =            1
     lattice parameter (alat)  =      22.6767  a.u.
     unit-cell volume          =   11661.1222 (a.u.)^3
     number of atoms/cell      =           13
     number of atomic types    =            3
     number of electrons       =        37.00 (up:  19.00, down:  18.00)
     number of Kohn-Sham states=           40
     kinetic-energy cutoff     =      70.0000  Ry
     charge density cutoff     =     280.0000  Ry
     convergence threshold     =      1.0E-04
     mixing beta               =       0.7000
     number of iterations used =            8  plain     mixing
     Exchange-correlation      = PBE ( 1  4  3  4 0 0)
     Assuming isolated system, Martyna-Tuckerman method


     celldm(1)=  22.676714  celldm(2)=   0.000000  celldm(3)=   0.000000
     celldm(4)=   0.000000  celldm(5)=   0.000000  celldm(6)=   0.000000

     crystal axes: (cart. coord. in units of alat)
               a(1) = (   1.000000   0.000000   0.000000 )  
               a(2) = (   0.000000   1.000000   0.000000 )  
               a(3) = (   0.000000   0.000000   1.000000 )  

     reciprocal axes: (cart. coord. in units 2 pi/alat)
               b(1) = (  1.000000  0.000000  0.000000 )  
               b(2) = (  0.000000  1.000000  0.000000 )  
               b(3) = (  0.000000  0.000000  1.000000 )  


     PseudoPot. # 1 for  C read from file:
     ./C.pbe-mt_fhi.UPF
     MD5 check sum: 058ca341f9d6d5327d9962fd88a91b65
     Pseudo is Norm-conserving, Zval =  4.0
     Generated using FHI98PP, converted with fhi2upf.x v.5.0.2
     Using radial grid of  461 points,  3 beta functions with: 
                l(1) =   0
                l(2) =   1
                l(3) =   3

     PseudoPot. # 2 for  H read from file:
     ./H.pbe-mt_fhi.UPF
     MD5 check sum: a19bd5488733b3d98581df861506e80d
     Pseudo is Norm-conserving, Zval =  1.0
     Generated using FHI98PP, converted with fhi2upf.x v.5.0.2
     Using radial grid of  387 points,  3 beta functions with: 
                l(1) =   0
                l(2) =   1
                l(3) =   3

     PseudoPot. # 3 for Cl read from file:
     ./Cl.pbe-mt_fhi.UPF
     MD5 check sum: 2690b95bbfe21454a1a3af22474751ef
     Pseudo is Norm-conserving, Zval =  7.0
     Generated using FHI98PP, converted with fhi2upf.x v.5.0.2
     Using radial grid of  503 points,  3 beta functions with: 
                l(1) =   0
                l(2) =   1
                l(3) =   3

     atomic species   valence    mass     pseudopotential
        C              4.00    12.01070      C( 1.00)
        H              1.00     1.00794      H( 1.00)
        Cl             7.00     1.00000     Cl( 1.00)

     Starting magnetic structure 
     atomic species   magnetization
        C            0.000
        H            0.000
        Cl           0.000

     No symmetry found


                                    s                        frac. trans.

      isym =  1     identity                                     

 cryst.   s( 1) = (     1          0          0      )
                  (     0          1          0      )
                  (     0          0          1      )

 cart.    s( 1) = (  1.0000000  0.0000000  0.0000000 )
                  (  0.0000000  1.0000000  0.0000000 )
                  (  0.0000000  0.0000000  1.0000000 )


     point group C_1 (1)    
     there are  1 classes
     the character table:

       E    
A      1.00

     the symmetry operations in each class:
     E        1

   Cartesian axes

     site n.     atom                  positions (alat units)
         1           C   tau(   1) = (   0.0000000   0.1164167   0.0000000  )
         2           C   tau(   2) = (   0.1008167   0.0582083   0.0000000  )
         3           C   tau(   3) = (   0.1008167  -0.0582083   0.0000000  )
         4           C   tau(   4) = (   0.0000000  -0.1164167   0.0000000  )
         5           C   tau(   5) = (  -0.1008167  -0.0582083   0.0000000  )
         6           C   tau(   6) = (  -0.1008167   0.0582083   0.0000000  )
         7           H   tau(   7) = (   0.0000000   0.2067500   0.0000000  )
         8           H   tau(   8) = (   0.1790500   0.1033750   0.0000000  )
         9           H   tau(   9) = (   0.1790500  -0.1033750   0.0000000  )
        10           H   tau(  10) = (   0.0000000  -0.2067500   0.0000000  )
        11           H   tau(  11) = (  -0.1790500  -0.1033750   0.0000000  )
        12           H   tau(  12) = (  -0.1790500   0.1033750   0.0000000  )
        13           Cl  tau(  13) = (   0.0504083   0.0873125   0.2500000  )

   Crystallographic axes

     site n.     atom                  positions (cryst. coord.)
         1           C   tau(   1) = (  0.0000000  0.1164167  0.0000000  )
         2           C   tau(   2) = (  0.1008167  0.0582083  0.0000000  )
         3           C   tau(   3) = (  0.1008167 -0.0582083  0.0000000  )
         4           C   tau(   4) = (  0.0000000 -0.1164167  0.0000000  )
         5           C   tau(   5) = ( -0.1008167 -0.0582083  0.0000000  )
         6           C   tau(   6) = ( -0.1008167  0.0582083  0.0000000  )
         7           H   tau(   7) = (  0.0000000  0.2067500  0.0000000  )
         8           H   tau(   8) = (  0.1790500  0.1033750  0.0000000  )
         9           H   tau(   9) = (  0.1790500 -0.1033750  0.0000000  )
        10           H   tau(  10) = (  0.0000000 -0.2067500  0.0000000  )
        11           H   tau(  11) = ( -0.1790500 -0.1033750  0.0000000  )
        12           H   tau(  12) = ( -0.1790500  0.1033750  0.0000000  )
        13           Cl  tau(  13) = (  0.0504083  0.0873125  0.2500000  )

     number of k points=     2
                       cart. coord. in units 2pi/alat
        k(    1) = (   0.0000000   0.0000000   0.0000000), wk =   1.0000000
        k(    2) = (   0.0000000   0.0000000   0.0000000), wk =   1.0000000

                       cryst. coord.
        k(    1) = (   0.0000000   0.0000000   0.0000000), wk =   1.0000000
        k(    2) = (   0.0000000   0.0000000   0.0000000), wk =   1.0000000

     Dense  grid:   461165 G-vectors     FFT dimensions: ( 126, 126, 126)

     Largest allocated arrays     est. size (Mb)     dimensions
        Kohn-Sham Wavefunctions         0.08 Mb     (     125,   40)
        NL pseudopotentials             0.27 Mb     (     125,  143)
        Each V/rho on FFT grid          0.48 Mb     (   15876,   2)
        Each G-vector array             0.01 Mb     (     904)
        G-vector shells                 0.00 Mb     (     430)
     Largest temporary arrays     est. size (Mb)     dimensions
        Auxiliary wavefunctions         0.15 Mb     (     125,  160)
        Each subspace H/S matrix        0.00 Mb     (      10,   10)
        Each <psi_i|beta_j> matrix      0.04 Mb     (     143,   40)
        Arrays for rho mixing           1.94 Mb     (   15876,    8)
 
     Using Hirshfeld
        Amplitude [Ry a.u.] : -1.0000E-01
        Acceptor Fragment start :          13
        Acceptor Fragment end   :          13
        Donor Fragment start :           1
        Donor Fragment end   :          12
 
     Cannot read rho : file not found

     Initial potential from superposition of free atoms

     starting charge   36.99968, renormalised to   37.00000

     negative rho (up, down):  7.172E-05 7.172E-05
     Starting wfc are  208 randomized atomic wfcs
2015-08-20 00:05:49.699 (INFO ) [0xfff8c0234e0] 12670:tatu.runjob.monitor: tracklib completed

     total cpu time spent up to now is        7.6 secs

     per-process dynamical memory:    44.0 Mb

     Self-consistent Calculation

     iteration #  1     ecut=    70.00 Ry     beta=0.70
     Davidson diagonalization with overlap
     WARNING:    11 eigenvalues not converged
     WARNING:     1 eigenvalues not converged
     c_bands:  1 eigenvalues not converged
     WARNING:    11 eigenvalues not converged
     WARNING:     1 eigenvalues not converged
     c_bands:  1 eigenvalues not converged
     ethr =  1.00E-05,  avg # of iterations = 40.0

     negative rho (up, down):  1.898E-05 1.979E-05
 
     Magnetic moment per site:
     atom:    1    charge:    0.9147    magn:    0.0007    constr:    0.0000
     atom:    2    charge:    0.9173    magn:    0.0007    constr:    0.0000
     atom:    3    charge:    0.9306    magn:    0.0001    constr:    0.0000
     atom:    4    charge:    0.9250    magn:    0.0003    constr:    0.0000
     atom:    5    charge:    0.9276    magn:    0.0003    constr:    0.0000
     atom:    6    charge:    0.9306    magn:    0.0001    constr:    0.0000
     atom:    7    charge:    0.4445    magn:    0.0000    constr:    0.0000
     atom:    8    charge:    0.4437    magn:    0.0000    constr:    0.0000
     atom:    9    charge:    0.4437    magn:    0.0000    constr:    0.0000
     atom:   10    charge:    0.4444    magn:    0.0000    constr:    0.0000
     atom:   11    charge:    0.4436    magn:    0.0000    constr:    0.0000
     atom:   12    charge:    0.4437    magn:    0.0000    constr:    0.0000
     atom:   13    charge:    5.4253    magn:    0.5773    constr:    0.0000

     total cpu time spent up to now is       23.0 secs

     The total energy is the sum of the following terms:

     one-electron contribution =    -708.15072695 Ry
     hartree contribution      =     357.04502368 Ry
     xc contribution           =     -30.99095232 Ry
     ewald contribution        =     268.46058250 Ry

     total energy              =    -106.10209718 Ry
     Harris-Foulkes estimate   =    -108.28064616 Ry
     estimated scf accuracy    <       2.88854538 Ry

     total magnetization       =     1.00 Bohr mag/cell
     absolute magnetization    =     1.00 Bohr mag/cell

     iteration #  2     ecut=    70.00 Ry     beta=0.70
     Davidson diagonalization with overlap
     ethr =  7.81E-03,  avg # of iterations =  9.5

     negative rho (up, down):  5.681E-07 1.158E-06
 
     Magnetic moment per site:
     atom:    1    charge:    0.8624    magn:    0.0054    constr:    0.0000
     atom:    2    charge:    0.8654    magn:    0.0046    constr:    0.0000
     atom:    3    charge:    0.8534    magn:    0.0129    constr:    0.0000
     atom:    4    charge:    0.8568    magn:    0.0030    constr:    0.0000
     atom:    5    charge:    0.8599    magn:    0.0023    constr:    0.0000
     atom:    6    charge:    0.8535    magn:    0.0126    constr:    0.0000
     atom:    7    charge:    0.4748    magn:    0.0002    constr:    0.0000
     atom:    8    charge:    0.4737    magn:    0.0002    constr:    0.0000
     atom:    9    charge:    0.4723    magn:    0.0005    constr:    0.0000
     atom:   10    charge:    0.4734    magn:    0.0001    constr:    0.0000
     atom:   11    charge:    0.4723    magn:    0.0000    constr:    0.0000
     atom:   12    charge:    0.4721    magn:    0.0005    constr:    0.0000
     atom:   13    charge:    6.0249    magn:    0.4058    constr:    0.0000

     total cpu time spent up to now is       26.9 secs

     The total energy is the sum of the following terms:

     one-electron contribution =    -680.00941299 Ry
     hartree contribution      =     349.73599295 Ry
     xc contribution           =     -30.62862604 Ry
     ewald contribution        =     268.46058250 Ry

     total energy              =    -107.15318586 Ry
     Harris-Foulkes estimate   =    -109.30658744 Ry
     estimated scf accuracy    <       4.50378670 Ry

     total magnetization       =     1.00 Bohr mag/cell
     absolute magnetization    =     1.07 Bohr mag/cell

     iteration #  3     ecut=    70.00 Ry     beta=0.70
     Davidson diagonalization with overlap
     ethr =  7.81E-03,  avg # of iterations =  7.5

     negative rho (up, down):  5.859E-09 1.187E-08
 
     Magnetic moment per site:
     atom:    1    charge:    0.8330    magn:    0.0166    constr:    0.0000
     atom:    2    charge:    0.8346    magn:    0.0166    constr:    0.0000
     atom:    3    charge:    0.8590    magn:    0.0069    constr:    0.0000
     atom:    4    charge:    0.8434    magn:    0.0096    constr:    0.0000
     atom:    5    charge:    0.8457    magn:    0.0096    constr:    0.0000
     atom:    6    charge:    0.8584    magn:    0.0066    constr:    0.0000
     atom:    7    charge:    0.4819    magn:    0.0003    constr:    0.0000
     atom:    8    charge:    0.4808    magn:    0.0002    constr:    0.0000
     atom:    9    charge:    0.4815    magn:   -0.0002    constr:    0.0000
     atom:   10    charge:    0.4818    magn:    0.0001    constr:    0.0000
     atom:   11    charge:    0.4802    magn:    0.0001    constr:    0.0000
     atom:   12    charge:    0.4815    magn:   -0.0002    constr:    0.0000
     atom:   13    charge:    6.2357    magn:    0.4116    constr:    0.0000

     total cpu time spent up to now is       30.1 secs

     The total energy is the sum of the following terms:

     one-electron contribution =    -692.51048849 Ry
     hartree contribution      =     349.74367269 Ry
     xc contribution           =     -30.72738513 Ry
     ewald contribution        =     268.46058250 Ry

     total energy              =    -107.53495093 Ry
     Harris-Foulkes estimate   =    -107.68027768 Ry
     estimated scf accuracy    <       0.35020914 Ry

     total magnetization       =     1.00 Bohr mag/cell
     absolute magnetization    =     1.03 Bohr mag/cell

     iteration #  4     ecut=    70.00 Ry     beta=0.70
     Davidson diagonalization with overlap
     ethr =  9.47E-04,  avg # of iterations = 12.0
 
     Magnetic moment per site:
     atom:    1    charge:    0.8385    magn:    0.0141    constr:    0.0000
     atom:    2    charge:    0.8409    magn:    0.0143    constr:    0.0000
     atom:    3    charge:    0.8390    magn:    0.0034    constr:    0.0000
     atom:    4    charge:    0.8329    magn:    0.0071    constr:    0.0000
     atom:    5    charge:    0.8359    magn:    0.0070    constr:    0.0000
     atom:    6    charge:    0.8389    magn:    0.0032    constr:    0.0000
     atom:    7    charge:    0.4916    magn:   -0.0003    constr:    0.0000
     atom:    8    charge:    0.4906    magn:   -0.0003    constr:    0.0000
     atom:    9    charge:    0.4922    magn:   -0.0005    constr:    0.0000
     atom:   10    charge:    0.4927    magn:   -0.0002    constr:    0.0000
     atom:   11    charge:    0.4911    magn:   -0.0002    constr:    0.0000
     atom:   12    charge:    0.4921    magn:   -0.0005    constr:    0.0000
     atom:   13    charge:    6.2113    magn:    0.5842    constr:    0.0000

     total cpu time spent up to now is       34.4 secs

     The total energy is the sum of the following terms:

     one-electron contribution =    -695.40083619 Ry
     hartree contribution      =     349.59912578 Ry
     xc contribution           =     -30.73704721 Ry
     ewald contribution        =     268.46058250 Ry

     total energy              =    -107.65454549 Ry
     Harris-Foulkes estimate   =    -107.67615554 Ry
     estimated scf accuracy    <       0.09515857 Ry

     total magnetization       =     1.00 Bohr mag/cell
     absolute magnetization    =     1.06 Bohr mag/cell

     iteration #  5     ecut=    70.00 Ry     beta=0.70
     Davidson diagonalization with overlap
     ethr =  2.57E-04,  avg # of iterations =  9.5
 
     Magnetic moment per site:
     atom:    1    charge:    0.8392    magn:    0.0102    constr:    0.0000
     atom:    2    charge:    0.8417    magn:    0.0101    constr:    0.0000
     atom:    3    charge:    0.8376    magn:    0.0029    constr:    0.0000
     atom:    4    charge:    0.8398    magn:    0.0036    constr:    0.0000
     atom:    5    charge:    0.8422    magn:    0.0035    constr:    0.0000
     atom:    6    charge:    0.8375    magn:    0.0027    constr:    0.0000
     atom:    7    charge:    0.4937    magn:   -0.0004    constr:    0.0000
     atom:    8    charge:    0.4929    magn:   -0.0004    constr:    0.0000
     atom:    9    charge:    0.4925    magn:   -0.0003    constr:    0.0000
     atom:   10    charge:    0.4941    magn:   -0.0003    constr:    0.0000
     atom:   11    charge:    0.4930    magn:   -0.0003    constr:    0.0000
     atom:   12    charge:    0.4925    magn:   -0.0003    constr:    0.0000
     atom:   13    charge:    6.1523    magn:    0.6925    constr:    0.0000

     total cpu time spent up to now is       38.3 secs

     The total energy is the sum of the following terms:

     one-electron contribution =    -695.80262609 Ry
     hartree contribution      =     349.73182135 Ry
     xc contribution           =     -30.74597171 Ry
     ewald contribution        =     268.46058250 Ry

     total energy              =    -107.66599407 Ry
     Harris-Foulkes estimate   =    -107.67020341 Ry
     estimated scf accuracy    <       0.02669106 Ry

     total magnetization       =     1.00 Bohr mag/cell
     absolute magnetization    =     1.06 Bohr mag/cell

     iteration #  6     ecut=    70.00 Ry     beta=0.70
     Davidson diagonalization with overlap
     WARNING:     2 eigenvalues not converged
     c_bands:  2 eigenvalues not converged
     WARNING:     2 eigenvalues not converged
     c_bands:  2 eigenvalues not converged
     ethr =  7.21E-05,  avg # of iterations = 20.0
 
     Magnetic moment per site:
     atom:    1    charge:    0.8424    magn:    0.0084    constr:    0.0000
     atom:    2    charge:    0.8446    magn:    0.0082    constr:    0.0000
     atom:    3    charge:    0.8415    magn:    0.0017    constr:    0.0000
     atom:    4    charge:    0.8373    magn:    0.0015    constr:    0.0000
     atom:    5    charge:    0.8397    magn:    0.0013    constr:    0.0000
     atom:    6    charge:    0.8414    magn:    0.0016    constr:    0.0000
     atom:    7    charge:    0.4947    magn:   -0.0005    constr:    0.0000
     atom:    8    charge:    0.4939    magn:   -0.0005    constr:    0.0000
     atom:    9    charge:    0.4934    magn:   -0.0002    constr:    0.0000
     atom:   10    charge:    0.4950    magn:   -0.0003    constr:    0.0000
     atom:   11    charge:    0.4942    magn:   -0.0004    constr:    0.0000
     atom:   12    charge:    0.4935    magn:   -0.0002    constr:    0.0000
     atom:   13    charge:    6.1413    magn:    0.7822    constr:    0.0000

     total cpu time spent up to now is       45.7 secs

     The total energy is the sum of the following terms:

     one-electron contribution =    -695.76356133 Ry
     hartree contribution      =     350.09901492 Ry
     xc contribution           =     -30.79698693 Ry
     ewald contribution        =     268.46058250 Ry

     total energy              =    -107.67239756 Ry
     Harris-Foulkes estimate   =    -107.67138472 Ry
     estimated scf accuracy    <       0.00455887 Ry

     total magnetization       =     1.00 Bohr mag/cell
     absolute magnetization    =     1.06 Bohr mag/cell

     iteration #  7     ecut=    70.00 Ry     beta=0.70
     Davidson diagonalization with overlap
     WARNING:     2 eigenvalues not converged
     c_bands:  2 eigenvalues not converged
     WARNING:     2 eigenvalues not converged
     c_bands:  2 eigenvalues not converged
     ethr =  1.23E-05,  avg # of iterations = 20.0

     negative rho (up, down):  1.324E-08 4.868E-09
 
     Magnetic moment per site:
     atom:    1    charge:    0.8395    magn:    0.0079    constr:    0.0000
     atom:    2    charge:    0.8421    magn:    0.0078    constr:    0.0000
     atom:    3    charge:    0.8420    magn:    0.0012    constr:    0.0000
     atom:    4    charge:    0.8395    magn:    0.0008    constr:    0.0000
     atom:    5    charge:    0.8421    magn:    0.0007    constr:    0.0000
     atom:    6    charge:    0.8420    magn:    0.0011    constr:    0.0000
     atom:    7    charge:    0.4951    magn:   -0.0004    constr:    0.0000
     atom:    8    charge:    0.4943    magn:   -0.0004    constr:    0.0000
     atom:    9    charge:    0.4942    magn:   -0.0002    constr:    0.0000
     atom:   10    charge:    0.4951    magn:   -0.0002    constr:    0.0000
     atom:   11    charge:    0.4942    magn:   -0.0003    constr:    0.0000
     atom:   12    charge:    0.4942    magn:   -0.0002    constr:    0.0000
     atom:   13    charge:    6.1404    magn:    0.8120    constr:    0.0000

     total cpu time spent up to now is       51.8 secs

     The total energy is the sum of the following terms:

     one-electron contribution =    -695.37506288 Ry
     hartree contribution      =     350.12182436 Ry
     xc contribution           =     -30.80615287 Ry
     ewald contribution        =     268.46058250 Ry

     total energy              =    -107.67449755 Ry
     Harris-Foulkes estimate   =    -107.67463189 Ry
     estimated scf accuracy    <       0.00226792 Ry

     total magnetization       =     1.00 Bohr mag/cell
     absolute magnetization    =     1.07 Bohr mag/cell

     iteration #  8     ecut=    70.00 Ry     beta=0.70
     Davidson diagonalization with overlap
     ethr =  6.13E-06,  avg # of iterations = 14.5

     negative rho (up, down):  7.507E-08 3.474E-08
 
     Magnetic moment per site:
     atom:    1    charge:    0.8395    magn:    0.0079    constr:    0.0000
     atom:    2    charge:    0.8420    magn:    0.0079    constr:    0.0000
     atom:    3    charge:    0.8422    magn:    0.0009    constr:    0.0000
     atom:    4    charge:    0.8394    magn:    0.0007    constr:    0.0000
     atom:    5    charge:    0.8419    magn:    0.0006    constr:    0.0000
     atom:    6    charge:    0.8422    magn:    0.0009    constr:    0.0000
     atom:    7    charge:    0.4951    magn:   -0.0003    constr:    0.0000
     atom:    8    charge:    0.4942    magn:   -0.0003    constr:    0.0000
     atom:    9    charge:    0.4943    magn:   -0.0001    constr:    0.0000
     atom:   10    charge:    0.4951    magn:   -0.0002    constr:    0.0000
     atom:   11    charge:    0.4941    magn:   -0.0002    constr:    0.0000
     atom:   12    charge:    0.4943    magn:   -0.0002    constr:    0.0000
     atom:   13    charge:    6.1418    magn:    0.8179    constr:    0.0000

     total cpu time spent up to now is       57.4 secs

     The total energy is the sum of the following terms:

     one-electron contribution =    -695.42332627 Ry
     hartree contribution      =     350.12401747 Ry
     xc contribution           =     -30.80792933 Ry
     ewald contribution        =     268.46058250 Ry

     total energy              =    -107.67521027 Ry
     Harris-Foulkes estimate   =    -107.67502579 Ry
     estimated scf accuracy    <       0.00049841 Ry

     total magnetization       =     1.00 Bohr mag/cell
     absolute magnetization    =     1.08 Bohr mag/cell

     iteration #  9     ecut=    70.00 Ry     beta=0.70
     Davidson diagonalization with overlap
     ethr =  1.35E-06,  avg # of iterations =  8.5

     negative rho (up, down):  1.491E-06 7.646E-07
 
     Magnetic moment per site:
     atom:    1    charge:    0.8396    magn:    0.0079    constr:    0.0000
     atom:    2    charge:    0.8423    magn:    0.0079    constr:    0.0000
     atom:    3    charge:    0.8420    magn:    0.0007    constr:    0.0000
     atom:    4    charge:    0.8393    magn:    0.0006    constr:    0.0000
     atom:    5    charge:    0.8418    magn:    0.0006    constr:    0.0000
     atom:    6    charge:    0.8420    magn:    0.0007    constr:    0.0000
     atom:    7    charge:    0.4951    magn:   -0.0002    constr:    0.0000
     atom:    8    charge:    0.4942    magn:   -0.0002    constr:    0.0000
     atom:    9    charge:    0.4942    magn:   -0.0001    constr:    0.0000
     atom:   10    charge:    0.4951    magn:   -0.0001    constr:    0.0000
     atom:   11    charge:    0.4942    magn:   -0.0001    constr:    0.0000
     atom:   12    charge:    0.4941    magn:   -0.0001    constr:    0.0000
     atom:   13    charge:    6.1442    magn:    0.8245    constr:    0.0000

     total cpu time spent up to now is       61.2 secs

     The total energy is the sum of the following terms:

     one-electron contribution =    -695.42917552 Ry
     hartree contribution      =     350.13213810 Ry
     xc contribution           =     -30.81241373 Ry
     ewald contribution        =     268.46058250 Ry

     total energy              =    -107.67545433 Ry
     Harris-Foulkes estimate   =    -107.67528600 Ry
     estimated scf accuracy    <       0.00031457 Ry

     total magnetization       =     1.00 Bohr mag/cell
     absolute magnetization    =     1.08 Bohr mag/cell

     iteration # 10     ecut=    70.00 Ry     beta=0.70
     Davidson diagonalization with overlap
     WARNING:     1 eigenvalues not converged
     c_bands:  1 eigenvalues not converged
     ethr =  8.50E-07,  avg # of iterations = 19.0

     negative rho (up, down):  1.895E-07 1.120E-07
 
     Magnetic moment per site:
     atom:    1    charge:    0.8397    magn:    0.0078    constr:    0.0000
     atom:    2    charge:    0.8423    magn:    0.0079    constr:    0.0000
     atom:    3    charge:    0.8420    magn:    0.0007    constr:    0.0000
     atom:    4    charge:    0.8392    magn:    0.0007    constr:    0.0000
     atom:    5    charge:    0.8417    magn:    0.0007    constr:    0.0000
     atom:    6    charge:    0.8420    magn:    0.0007    constr:    0.0000
     atom:    7    charge:    0.4950    magn:   -0.0001    constr:    0.0000
     atom:    8    charge:    0.4941    magn:   -0.0002    constr:    0.0000
     atom:    9    charge:    0.4941    magn:   -0.0001    constr:    0.0000
     atom:   10    charge:    0.4951    magn:   -0.0001    constr:    0.0000
     atom:   11    charge:    0.4942    magn:    0.0000    constr:    0.0000
     atom:   12    charge:    0.4940    magn:   -0.0001    constr:    0.0000
     atom:   13    charge:    6.1433    magn:    0.8223    constr:    0.0000

     total cpu time spent up to now is       67.2 secs

     The total energy is the sum of the following terms:

     one-electron contribution =    -695.42844953 Ry
     hartree contribution      =     350.11586127 Ry
     xc contribution           =     -30.81019950 Ry
     ewald contribution        =     268.46058250 Ry

     total energy              =    -107.67575797 Ry
     Harris-Foulkes estimate   =    -107.67568303 Ry
     estimated scf accuracy    <       0.00017895 Ry

     total magnetization       =     1.00 Bohr mag/cell
     absolute magnetization    =     1.08 Bohr mag/cell

     iteration # 11     ecut=    70.00 Ry     beta=0.70
     Davidson diagonalization with overlap
     ethr =  4.84E-07,  avg # of iterations =  6.0

     negative rho (up, down):  3.485E-08 1.949E-08
 
     Magnetic moment per site:
     atom:    1    charge:    0.8397    magn:    0.0078    constr:    0.0000
     atom:    2    charge:    0.8423    magn:    0.0079    constr:    0.0000
     atom:    3    charge:    0.8421    magn:    0.0007    constr:    0.0000
     atom:    4    charge:    0.8392    magn:    0.0008    constr:    0.0000
     atom:    5    charge:    0.8417    magn:    0.0008    constr:    0.0000
     atom:    6    charge:    0.8420    magn:    0.0007    constr:    0.0000
     atom:    7    charge:    0.4950    magn:   -0.0001    constr:    0.0000
     atom:    8    charge:    0.4941    magn:   -0.0002    constr:    0.0000
     atom:    9    charge:    0.4940    magn:   -0.0001    constr:    0.0000
     atom:   10    charge:    0.4951    magn:   -0.0001    constr:    0.0000
     atom:   11    charge:    0.4941    magn:    0.0000    constr:    0.0000
     atom:   12    charge:    0.4940    magn:   -0.0001    constr:    0.0000
     atom:   13    charge:    6.1434    magn:    0.8209    constr:    0.0000

     total cpu time spent up to now is       70.0 secs

     The total energy is the sum of the following terms:

     one-electron contribution =    -695.43517423 Ry
     hartree contribution      =     350.11654814 Ry
     xc contribution           =     -30.80970984 Ry
     ewald contribution        =     268.46058250 Ry

     total energy              =    -107.67589005 Ry
     Harris-Foulkes estimate   =    -107.67583810 Ry
     estimated scf accuracy    <       0.00012053 Ry

     total magnetization       =     1.00 Bohr mag/cell
     absolute magnetization    =     1.08 Bohr mag/cell

     iteration # 12     ecut=    70.00 Ry     beta=0.70
     Davidson diagonalization with overlap
     WARNING:     1 eigenvalues not converged
     c_bands:  1 eigenvalues not converged
     ethr =  3.26E-07,  avg # of iterations = 12.5
 
     Magnetic moment per site:
     atom:    1    charge:    0.8394    magn:    0.0080    constr:    0.0000
     atom:    2    charge:    0.8417    magn:    0.0080    constr:    0.0000
     atom:    3    charge:    0.8422    magn:    0.0007    constr:    0.0000
     atom:    4    charge:    0.8392    magn:    0.0009    constr:    0.0000
     atom:    5    charge:    0.8417    magn:    0.0009    constr:    0.0000
     atom:    6    charge:    0.8423    magn:    0.0007    constr:    0.0000
     atom:    7    charge:    0.4951    magn:   -0.0001    constr:    0.0000
     atom:    8    charge:    0.4942    magn:   -0.0001    constr:    0.0000
     atom:    9    charge:    0.4940    magn:   -0.0001    constr:    0.0000
     atom:   10    charge:    0.4951    magn:   -0.0001    constr:    0.0000
     atom:   11    charge:    0.4941    magn:   -0.0001    constr:    0.0000
     atom:   12    charge:    0.4940    magn:   -0.0001    constr:    0.0000
     atom:   13    charge:    6.1440    magn:    0.8207    constr:    0.0000

     total cpu time spent up to now is       74.6 secs

     End of self-consistent calculation

 ------ SPIN UP ------------


          k = 0.0000 0.0000 0.0000 ( 57657 PWs)   bands (ev):

   -22.6552 -19.9099 -19.8525 -19.3786 -16.2729 -16.2713 -14.3576 -12.6625
   -12.3735 -11.7077 -11.6872 -10.6378  -9.7180  -9.7150  -8.4405  -7.8663
    -7.5097  -6.7529  -6.7162  -2.7186  -2.6855  -1.7144  -0.8268  -0.8156
    -0.5481  -0.4853  -0.1982   0.1046   0.3910   0.4714   0.5416   0.6329
     0.6539   0.9917   1.0483   1.1403   1.3650   1.4186   1.5457   1.6190

     occupation numbers 
     1.0000   1.0000   1.0000   1.0000   1.0000   1.0000   1.0000   1.0000
     1.0000   1.0000   1.0000   1.0000   1.0000   1.0000   1.0000   1.0000
     1.0000   1.0000   1.0000   0.0000   0.0000   0.0000   0.0000   0.0000
     0.0000   0.0000   0.0000   0.0000   0.0000   0.0000   0.0000   0.0000
     0.0000   0.0000   0.0000   0.0000   0.0000   0.0000   0.0000   0.0000

 ------ SPIN DOWN ----------


          k = 0.0000 0.0000 0.0000 ( 57657 PWs)   bands (ev):

   -22.6334 -19.8666 -19.8409 -18.2571 -16.2599 -16.2556 -14.3522 -12.6541
   -12.3637 -11.6988 -11.6837 -10.5351  -9.7113  -9.7098  -7.8955  -7.8232
    -6.4396  -6.4120  -5.7368  -2.6570  -2.6473  -1.7100  -0.8256  -0.8109
    -0.5471  -0.4764  -0.1960   0.1248   0.3936   0.4736   0.5479   0.6396
     0.6545   1.0081   1.0730   1.1467   1.3689   1.4261   1.5611   1.6243

     occupation numbers 
     1.0000   1.0000   1.0000   1.0000   1.0000   1.0000   1.0000   1.0000
     1.0000   1.0000   1.0000   1.0000   1.0000   1.0000   1.0000   1.0000
     1.0000   1.0000   0.0000   0.0000   0.0000   0.0000   0.0000   0.0000
     0.0000   0.0000   0.0000   0.0000   0.0000   0.0000   0.0000   0.0000
     0.0000   0.0000   0.0000   0.0000   0.0000   0.0000   0.0000   0.0000

     highest occupied, lowest unoccupied level (ev):    -6.4120   -5.7368

     The total energy is the sum of the following terms:

     one-electron contribution =    -695.43354720 Ry
     hartree contribution      =     350.10592411 Ry
     xc contribution           =     -30.80893026 Ry
     ewald contribution        =     268.46058250 Ry

!    total energy              =    -107.67597085 Ry
     Harris-Foulkes estimate   =    -107.67593963 Ry
     estimated scf accuracy    <       0.00008409 Ry

     The total energy is the sum of the following terms:

     one-electron contribution =    -695.43354720 Ry
     hartree contribution      =     350.10592411 Ry
     xc contribution           =     -30.80893026 Ry
     ewald contribution        =     268.46058250 Ry

     total magnetization       =     1.00 Bohr mag/cell
     absolute magnetization    =     1.08 Bohr mag/cell

     convergence has been achieved in  12 iterations
 
     Using Hirshfeld
        Amplitude [Ry a.u.] : -1.0000E-01
        Acceptor Fragment start :          13
        Acceptor Fragment end   :          13
        Donor Fragment start :           1
        Donor Fragment end   :          12
 
 
     Using Hirshfeld
        Amplitude [Ry a.u.] : -1.0000E-01
        Acceptor Fragment start :          13
        Acceptor Fragment end   :          13
        Donor Fragment start :           1
        Donor Fragment end   :          12
 
     E field correction              :  0.2300589126127475E+01 Ry    
 
     Donor charge                    :      0.1409658634088728 e     
     Acceptor charge                 :      0.1468571246836232 e     
     Difference of charges           :     -0.0058912612747513 e     
 
     epcdft_thr                      :  0.1000000000000000E-01 e     
     Surplus(+)/deficit(-) charge    :  0.9941087387252487E+00 e     
 
     -----------------------------------------------
 
                      SCF converged but...
 
     electron localization condition NOT satisfied
     restarting scf with different applied potential
 
     New field Amp                   : -0.1010000000000000E+00 Ry    
     charge density from previous step
 
     Using Hirshfeld
        Amplitude [Ry a.u.] : -1.0100E-01
        Acceptor Fragment start :          13
        Acceptor Fragment end   :          13
        Donor Fragment start :           1
        Donor Fragment end   :          12
 

     total cpu time spent up to now is       78.4 secs

     per-process dynamical memory:    52.2 Mb

     Self-consistent Calculation

     iteration #  1     ecut=    70.00 Ry     beta=0.70
     Davidson diagonalization with overlap
     ethr =  3.26E-07,  avg # of iterations = 11.5
 
     Magnetic moment per site:
     atom:    1    charge:    0.8401    magn:    0.0079    constr:    0.0000
     atom:    2    charge:    0.8431    magn:    0.0079    constr:    0.0000
     atom:    3    charge:    0.8421    magn:    0.0006    constr:    0.0000
     atom:    4    charge:    0.8391    magn:    0.0008    constr:    0.0000
     atom:    5    charge:    0.8416    magn:    0.0008    constr:    0.0000
     atom:    6    charge:    0.8416    magn:    0.0006    constr:    0.0000
     atom:    7    charge:    0.4950    magn:   -0.0001    constr:    0.0000
     atom:    8    charge:    0.4941    magn:   -0.0001    constr:    0.0000
     atom:    9    charge:    0.4940    magn:   -0.0001    constr:    0.0000
     atom:   10    charge:    0.4951    magn:   -0.0001    constr:    0.0000
     atom:   11    charge:    0.4941    magn:   -0.0001    constr:    0.0000
     atom:   12    charge:    0.4940    magn:   -0.0001    constr:    0.0000
     atom:   13    charge:    6.1411    magn:    0.8223    constr:    0.0000

     total cpu time spent up to now is       83.3 secs

     End of self-consistent calculation

 ------ SPIN UP ------------


          k = 0.0000 0.0000 0.0000 ( 57657 PWs)   bands (ev):

   -22.6768 -19.9334 -19.8697 -19.3573 -16.2942 -16.2924 -14.3783 -12.6830
   -12.3953 -11.7317 -11.7042 -10.6569  -9.7386  -9.7356  -8.4419  -7.8807
    -7.5105  -6.7315  -6.6962  -2.7418  -2.7033  -1.7290  -0.8408  -0.8310
    -0.5624  -0.4990  -0.2134   0.0970   0.3832   0.4593   0.5284   0.6201
     0.6417   0.9759   1.0336   1.1321   1.3578   1.4132   1.5396   1.6116

     occupation numbers 
     1.0000   1.0000   1.0000   1.0000   1.0000   1.0000   1.0000   1.0000
     1.0000   1.0000   1.0000   1.0000   1.0000   1.0000   1.0000   1.0000
     1.0000   1.0000   1.0000   0.0000   0.0000   0.0000   0.0000   0.0000
     0.0000   0.0000   0.0000   0.0000   0.0000   0.0000   0.0000   0.0000
     0.0000   0.0000   0.0000   0.0000   0.0000   0.0000   0.0000   0.0000

 ------ SPIN DOWN ----------


          k = 0.0000 0.0000 0.0000 ( 57657 PWs)   bands (ev):

   -22.6546 -19.8914 -19.8579 -18.2329 -16.2810 -16.2765 -14.3728 -12.6745
   -12.3853 -11.7227 -11.7007 -10.5544  -9.7319  -9.7303  -7.9152  -7.8379
    -6.4149  -6.3899  -5.7205  -2.6790  -2.6643  -1.7247  -0.8397  -0.8265
    -0.5615  -0.4902  -0.2114   0.1167   0.3857   0.4612   0.5347   0.6266
     0.6420   0.9949   1.0565   1.1385   1.3612   1.4199   1.5540   1.6170

     occupation numbers 
     1.0000   1.0000   1.0000   1.0000   1.0000   1.0000   1.0000   1.0000
     1.0000   1.0000   1.0000   1.0000   1.0000   1.0000   1.0000   1.0000
     1.0000   1.0000   0.0000   0.0000   0.0000   0.0000   0.0000   0.0000
     0.0000   0.0000   0.0000   0.0000   0.0000   0.0000   0.0000   0.0000
     0.0000   0.0000   0.0000   0.0000   0.0000   0.0000   0.0000   0.0000

     highest occupied, lowest unoccupied level (ev):    -6.3899   -5.7205

     The total energy is the sum of the following terms:

     one-electron contribution =    -695.47684426 Ry
     hartree contribution      =     350.12705618 Ry
     xc contribution           =     -30.80981726 Ry
     ewald contribution        =     268.46058250 Ry

!    total energy              =    -107.69902285 Ry
     Harris-Foulkes estimate   =    -107.69902565 Ry
     estimated scf accuracy    <       0.00004731 Ry

     The total energy is the sum of the following terms:

     one-electron contribution =    -695.47684426 Ry
     hartree contribution      =     350.12705618 Ry
     xc contribution           =     -30.80981726 Ry
     ewald contribution        =     268.46058250 Ry

     total magnetization       =     1.00 Bohr mag/cell
     absolute magnetization    =     1.08 Bohr mag/cell

     convergence has been achieved in   1 iterations
 
     Using Hirshfeld
        Amplitude [Ry a.u.] : -1.0100E-01
        Acceptor Fragment start :          13
        Acceptor Fragment end   :          13
        Donor Fragment start :           1
        Donor Fragment end   :          12
 
 
     Using Hirshfeld
        Amplitude [Ry a.u.] : -1.0100E-01
        Acceptor Fragment start :          13
        Acceptor Fragment end   :          13
        Donor Fragment start :           1
        Donor Fragment end   :          12
 
     E field correction              :  0.2324150195701327E+01 Ry    
 
     Donor charge                    :      0.1382613917129554 e     
     Acceptor charge                 :      0.1496494679636697 e     
     Difference of charges           :     -0.0113880762507179 e     
 
     epcdft_thr                      :  0.1000000000000000E-01 e     
     Surplus(+)/deficit(-) charge    :  0.9886119237492821E+00 e     
 
     -----------------------------------------------
 
                      SCF converged but...
 
     electron localization condition NOT satisfied
     restarting scf with different applied potential
 
     New field Amp                   : -0.1060000000000000E+00 Ry    
     charge density from previous step
 
     Using Hirshfeld
        Amplitude [Ry a.u.] : -1.0600E-01
        Acceptor Fragment start :          13
        Acceptor Fragment end   :          13
        Donor Fragment start :           1
        Donor Fragment end   :          12
 

     total cpu time spent up to now is       86.6 secs

     per-process dynamical memory:    52.2 Mb

     Self-consistent Calculation

     iteration #  1     ecut=    70.00 Ry     beta=0.70
     Davidson diagonalization with overlap
     WARNING:     2 eigenvalues not converged
     c_bands:  2 eigenvalues not converged
     WARNING:     2 eigenvalues not converged
     c_bands:  2 eigenvalues not converged
     ethr =  3.26E-07,  avg # of iterations = 20.0
 
     Magnetic moment per site:
     atom:    1    charge:    0.8393    magn:    0.0077    constr:    0.0000
     atom:    2    charge:    0.8411    magn:    0.0077    constr:    0.0000
     atom:    3    charge:    0.8421    magn:    0.0006    constr:    0.0000
     atom:    4    charge:    0.8396    magn:    0.0008    constr:    0.0000
     atom:    5    charge:    0.8422    magn:    0.0008    constr:    0.0000
     atom:    6    charge:    0.8428    magn:    0.0006    constr:    0.0000
     atom:    7    charge:    0.4952    magn:   -0.0001    constr:    0.0000
     atom:    8    charge:    0.4942    magn:   -0.0001    constr:    0.0000
     atom:    9    charge:    0.4941    magn:    0.0000    constr:    0.0000
     atom:   10    charge:    0.4951    magn:   -0.0001    constr:    0.0000
     atom:   11    charge:    0.4942    magn:   -0.0001    constr:    0.0000
     atom:   12    charge:    0.4941    magn:    0.0000    constr:    0.0000
     atom:   13    charge:    6.1387    magn:    0.8240    constr:    0.0000

     total cpu time spent up to now is       94.8 secs

     The total energy is the sum of the following terms:

     one-electron contribution =    -695.57714755 Ry
     hartree contribution      =     350.11523218 Ry
     xc contribution           =     -30.80833263 Ry
     ewald contribution        =     268.46058250 Ry

     total energy              =    -107.81407459 Ry
     Harris-Foulkes estimate   =    -107.81417038 Ry
     estimated scf accuracy    <       0.00016381 Ry

     total magnetization       =     1.00 Bohr mag/cell
     absolute magnetization    =     1.08 Bohr mag/cell

     iteration #  2     ecut=    70.00 Ry     beta=0.70
     Davidson diagonalization with overlap
     ethr =  4.43E-07,  avg # of iterations = 10.5
 
     Magnetic moment per site:
     atom:    1    charge:    0.8398    magn:    0.0076    constr:    0.0000
     atom:    2    charge:    0.8423    magn:    0.0077    constr:    0.0000
     atom:    3    charge:    0.8422    magn:    0.0006    constr:    0.0000
     atom:    4    charge:    0.8391    magn:    0.0008    constr:    0.0000
     atom:    5    charge:    0.8416    magn:    0.0008    constr:    0.0000
     atom:    6    charge:    0.8421    magn:    0.0006    constr:    0.0000
     atom:    7    charge:    0.4951    magn:   -0.0001    constr:    0.0000
     atom:    8    charge:    0.4942    magn:   -0.0001    constr:    0.0000
     atom:    9    charge:    0.4941    magn:    0.0000    constr:    0.0000
     atom:   10    charge:    0.4951    magn:   -0.0001    constr:    0.0000
     atom:   11    charge:    0.4942    magn:   -0.0001    constr:    0.0000
     atom:   12    charge:    0.4941    magn:    0.0000    constr:    0.0000
     atom:   13    charge:    6.1389    magn:    0.8243    constr:    0.0000

     total cpu time spent up to now is       98.9 secs

     The total energy is the sum of the following terms:

     one-electron contribution =    -695.60082080 Ry
     hartree contribution      =     350.12128541 Ry
     xc contribution           =     -30.80873589 Ry
     ewald contribution        =     268.46058250 Ry

     total energy              =    -107.81410478 Ry
     Harris-Foulkes estimate   =    -107.81422470 Ry
     estimated scf accuracy    <       0.00028858 Ry

     total magnetization       =     1.00 Bohr mag/cell
     absolute magnetization    =     1.08 Bohr mag/cell

     iteration #  3     ecut=    70.00 Ry     beta=0.70
     Davidson diagonalization with overlap
     ethr =  4.43E-07,  avg # of iterations =  3.0
 
     Magnetic moment per site:
     atom:    1    charge:    0.8398    magn:    0.0076    constr:    0.0000
     atom:    2    charge:    0.8424    magn:    0.0076    constr:    0.0000
     atom:    3    charge:    0.8420    magn:    0.0006    constr:    0.0000
     atom:    4    charge:    0.8392    magn:    0.0008    constr:    0.0000
     atom:    5    charge:    0.8418    magn:    0.0008    constr:    0.0000
     atom:    6    charge:    0.8420    magn:    0.0006    constr:    0.0000
     atom:    7    charge:    0.4951    magn:   -0.0001    constr:    0.0000
     atom:    8    charge:    0.4942    magn:   -0.0001    constr:    0.0000
     atom:    9    charge:    0.4941    magn:    0.0000    constr:    0.0000
     atom:   10    charge:    0.4951    magn:    0.0000    constr:    0.0000
     atom:   11    charge:    0.4942    magn:    0.0000    constr:    0.0000
     atom:   12    charge:    0.4941    magn:    0.0000    constr:    0.0000
     atom:   13    charge:    6.1396    magn:    0.8246    constr:    0.0000

     total cpu time spent up to now is      101.0 secs

     End of self-consistent calculation

 ------ SPIN UP ------------


          k = 0.0000 0.0000 0.0000 ( 57657 PWs)   bands (ev):

   -22.7222 -19.9764 -19.9193 -19.3499 -16.3425 -16.3408 -14.4278 -12.7341
   -12.4418 -11.7790 -11.7557 -10.6992  -9.7881  -9.7851  -8.4633  -7.9266
    -7.5238  -6.7215  -6.6846  -2.7875  -2.7533  -1.7880  -0.9008  -0.8903
    -0.6231  -0.5557  -0.2733   0.0525   0.3343   0.4009   0.4724   0.5641
     0.5826   0.9219   0.9816   1.0838   1.3166   1.3743   1.4943   1.5712

     occupation numbers 
     1.0000   1.0000   1.0000   1.0000   1.0000   1.0000   1.0000   1.0000
     1.0000   1.0000   1.0000   1.0000   1.0000   1.0000   1.0000   1.0000
     1.0000   1.0000   1.0000   0.0000   0.0000   0.0000   0.0000   0.0000
     0.0000   0.0000   0.0000   0.0000   0.0000   0.0000   0.0000   0.0000
     0.0000   0.0000   0.0000   0.0000   0.0000   0.0000   0.0000   0.0000

 ------ SPIN DOWN ----------


          k = 0.0000 0.0000 0.0000 ( 57657 PWs)   bands (ev):

   -22.7013 -19.9372 -19.9081 -18.2173 -16.3300 -16.3257 -14.4227 -12.7261
   -12.4323 -11.7705 -11.7524 -10.6017  -9.7816  -9.7801  -7.9584  -7.8865
    -6.4006  -6.3748  -5.7017  -2.7280  -2.7154  -1.7838  -0.8998  -0.8860
    -0.6224  -0.5474  -0.2714   0.0712   0.3365   0.4025   0.4779   0.5704
     0.5833   0.9384   1.0048   1.0900   1.3196   1.3794   1.5064   1.5769

     occupation numbers 
     1.0000   1.0000   1.0000   1.0000   1.0000   1.0000   1.0000   1.0000
     1.0000   1.0000   1.0000   1.0000   1.0000   1.0000   1.0000   1.0000
     1.0000   1.0000   0.0000   0.0000   0.0000   0.0000   0.0000   0.0000
     0.0000   0.0000   0.0000   0.0000   0.0000   0.0000   0.0000   0.0000
     0.0000   0.0000   0.0000   0.0000   0.0000   0.0000   0.0000   0.0000

     highest occupied, lowest unoccupied level (ev):    -6.3748   -5.7017

     The total energy is the sum of the following terms:

     one-electron contribution =    -695.58858268 Ry
     hartree contribution      =     350.12298775 Ry
     xc contribution           =     -30.80915850 Ry
     ewald contribution        =     268.46058250 Ry

!    total energy              =    -107.81417093 Ry
     Harris-Foulkes estimate   =    -107.81416151 Ry
     estimated scf accuracy    <       0.00001513 Ry

     The total energy is the sum of the following terms:

     one-electron contribution =    -695.58858268 Ry
     hartree contribution      =     350.12298775 Ry
     xc contribution           =     -30.80915850 Ry
     ewald contribution        =     268.46058250 Ry

     total magnetization       =     1.00 Bohr mag/cell
     absolute magnetization    =     1.08 Bohr mag/cell

     convergence has been achieved in   3 iterations
 
     Using Hirshfeld
        Amplitude [Ry a.u.] : -1.0600E-01
        Acceptor Fragment start :          13
        Acceptor Fragment end   :          13
        Donor Fragment start :           1
        Donor Fragment end   :          12
 
 
     Using Hirshfeld
        Amplitude [Ry a.u.] : -1.0600E-01
        Acceptor Fragment start :          13
        Acceptor Fragment end   :          13
        Donor Fragment start :           1
        Donor Fragment end   :          12
 
     E field correction              :  0.2439946628674486E+01 Ry    
 
     Donor charge                    :      0.1347189597101774 e     
     Acceptor charge                 :      0.1530833811675922 e     
     Difference of charges           :     -0.0183644214574130 e     
 
     epcdft_thr                      :  0.1000000000000000E-01 e     
     Surplus(+)/deficit(-) charge    :  0.9816355785425870E+00 e     
 
     -----------------------------------------------
 
                      SCF converged but...
 
     electron localization condition NOT satisfied
     restarting scf with different applied potential
 
     New field Amp                   : -0.1110000000000000E+00 Ry    
     charge density from previous step
 
     Using Hirshfeld
        Amplitude [Ry a.u.] : -1.1100E-01
        Acceptor Fragment start :          13
        Acceptor Fragment end   :          13
        Donor Fragment start :           1
        Donor Fragment end   :          12
 

     total cpu time spent up to now is      104.7 secs

     per-process dynamical memory:    60.4 Mb

     Self-consistent Calculation

     iteration #  1     ecut=    70.00 Ry     beta=0.70
     Davidson diagonalization with overlap
     WARNING:     2 eigenvalues not converged
     c_bands:  2 eigenvalues not converged
     WARNING:     2 eigenvalues not converged
     c_bands:  2 eigenvalues not converged
     ethr =  4.43E-07,  avg # of iterations = 20.0
 
     Magnetic moment per site:
     atom:    1    charge:    0.8403    magn:    0.0071    constr:    0.0000
     atom:    2    charge:    0.8428    magn:    0.0072    constr:    0.0000
     atom:    3    charge:    0.8425    magn:    0.0006    constr:    0.0000
     atom:    4    charge:    0.8392    magn:    0.0007    constr:    0.0000
     atom:    5    charge:    0.8416    magn:    0.0007    constr:    0.0000
     atom:    6    charge:    0.8422    magn:    0.0006    constr:    0.0000
     atom:    7    charge:    0.4952    magn:   -0.0001    constr:    0.0000
     atom:    8    charge:    0.4942    magn:   -0.0001    constr:    0.0000
     atom:    9    charge:    0.4941    magn:    0.0000    constr:    0.0000
     atom:   10    charge:    0.4951    magn:   -0.0001    constr:    0.0000
     atom:   11    charge:    0.4942    magn:   -0.0001    constr:    0.0000
     atom:   12    charge:    0.4941    magn:    0.0000    constr:    0.0000
     atom:   13    charge:    6.1310    magn:    0.8288    constr:    0.0000

     total cpu time spent up to now is      112.1 secs

     End of self-consistent calculation

 ------ SPIN UP ------------


          k = 0.0000 0.0000 0.0000 ( 57657 PWs)   bands (ev):

   -22.7908 -20.0389 -19.9907 -19.2795 -16.4114 -16.4096 -14.4966 -12.8029
   -12.5110 -11.8456 -11.8267 -10.7600  -9.8569  -9.8539  -8.4583  -7.9903
    -7.5278  -6.6532  -6.6200  -2.8524  -2.8219  -1.8528  -0.9667  -0.9551
    -0.6884  -0.6174  -0.3391   0.0070   0.2820   0.3394   0.4124   0.5052
     0.5203   0.8583   0.9217   1.0331   1.2740   1.3344   1.4482   1.5288

     occupation numbers 
     1.0000   1.0000   1.0000   1.0000   1.0000   1.0000   1.0000   1.0000
     1.0000   1.0000   1.0000   1.0000   1.0000   1.0000   1.0000   1.0000
     1.0000   1.0000   1.0000   0.0000   0.0000   0.0000   0.0000   0.0000
     0.0000   0.0000   0.0000   0.0000   0.0000   0.0000   0.0000   0.0000
     0.0000   0.0000   0.0000   0.0000   0.0000   0.0000   0.0000   0.0000

 ------ SPIN DOWN ----------


          k = 0.0000 0.0000 0.0000 ( 57657 PWs)   bands (ev):

   -22.7699 -20.0030 -19.9794 -18.1433 -16.3989 -16.3945 -14.4915 -12.7949
   -12.5014 -11.8371 -11.8233 -10.6669  -9.8504  -9.8489  -8.0158  -7.9523
    -6.3309  -6.3083  -5.6424  -2.7932  -2.7834  -1.8486  -0.9658  -0.9506
    -0.6876  -0.6091  -0.3371   0.0251   0.2841   0.3411   0.4174   0.5107
     0.5222   0.8775   0.9423   1.0392   1.2769   1.3382   1.4576   1.5352

     occupation numbers 
     1.0000   1.0000   1.0000   1.0000   1.0000   1.0000   1.0000   1.0000
     1.0000   1.0000   1.0000   1.0000   1.0000   1.0000   1.0000   1.0000
     1.0000   1.0000   0.0000   0.0000   0.0000   0.0000   0.0000   0.0000
     0.0000   0.0000   0.0000   0.0000   0.0000   0.0000   0.0000   0.0000
     0.0000   0.0000   0.0000   0.0000   0.0000   0.0000   0.0000   0.0000

     highest occupied, lowest unoccupied level (ev):    -6.3083   -5.6424

     The total energy is the sum of the following terms:

     one-electron contribution =    -695.72929630 Ry
     hartree contribution      =     350.14757734 Ry
     xc contribution           =     -30.80814869 Ry
     ewald contribution        =     268.46058250 Ry

!    total energy              =    -107.92928515 Ry
     Harris-Foulkes estimate   =    -107.92932067 Ry
     estimated scf accuracy    <       0.00005460 Ry

     The total energy is the sum of the following terms:

     one-electron contribution =    -695.72929630 Ry
     hartree contribution      =     350.14757734 Ry
     xc contribution           =     -30.80814869 Ry
     ewald contribution        =     268.46058250 Ry

     total magnetization       =     1.00 Bohr mag/cell
     absolute magnetization    =     1.08 Bohr mag/cell

     convergence has been achieved in   1 iterations
 
     Using Hirshfeld
        Amplitude [Ry a.u.] : -1.1100E-01
        Acceptor Fragment start :          13
        Acceptor Fragment end   :          13
        Donor Fragment start :           1
        Donor Fragment end   :          12
 
 
     Using Hirshfeld
        Amplitude [Ry a.u.] : -1.1100E-01
        Acceptor Fragment start :          13
        Acceptor Fragment end   :          13
        Donor Fragment start :           1
        Donor Fragment end   :          12
 
     E field correction              :  0.2556900983354566E+01 Ry    
 
     Donor charge                    :      0.1264346285561686 e     
     Acceptor charge                 :      0.1615786227414624 e     
     Difference of charges           :     -0.0351439941853009 e     
 
     epcdft_thr                      :  0.1000000000000000E-01 e     
     Surplus(+)/deficit(-) charge    :  0.9648560058146991E+00 e     
 
     -----------------------------------------------
 
                      SCF converged but...
 
     electron localization condition NOT satisfied
     restarting scf with different applied potential
 
     New field Amp                   : -0.1160000000000000E+00 Ry    
     charge density from previous step
 
     Using Hirshfeld
        Amplitude [Ry a.u.] : -1.1600E-01
        Acceptor Fragment start :          13
        Acceptor Fragment end   :          13
        Donor Fragment start :           1
        Donor Fragment end   :          12
 

     total cpu time spent up to now is      115.8 secs

     per-process dynamical memory:    60.4 Mb

     Self-consistent Calculation

     iteration #  1     ecut=    70.00 Ry     beta=0.70
     Davidson diagonalization with overlap
     WARNING:     1 eigenvalues not converged
     c_bands:  1 eigenvalues not converged
     WARNING:     1 eigenvalues not converged
     c_bands:  1 eigenvalues not converged
     ethr =  4.43E-07,  avg # of iterations = 20.0
 
     Magnetic moment per site:
     atom:    1    charge:    0.8393    magn:    0.0069    constr:    0.0000
     atom:    2    charge:    0.8418    magn:    0.0070    constr:    0.0000
     atom:    3    charge:    0.8415    magn:    0.0007    constr:    0.0000
     atom:    4    charge:    0.8394    magn:    0.0007    constr:    0.0000
     atom:    5    charge:    0.8422    magn:    0.0007    constr:    0.0000
     atom:    6    charge:    0.8421    magn:    0.0007    constr:    0.0000
     atom:    7    charge:    0.4954    magn:   -0.0001    constr:    0.0000
     atom:    8    charge:    0.4945    magn:   -0.0001    constr:    0.0000
     atom:    9    charge:    0.4943    magn:    0.0000    constr:    0.0000
     atom:   10    charge:    0.4953    magn:    0.0000    constr:    0.0000
     atom:   11    charge:    0.4943    magn:    0.0000    constr:    0.0000
     atom:   12    charge:    0.4942    magn:    0.0000    constr:    0.0000
     atom:   13    charge:    6.1340    magn:    0.8301    constr:    0.0000

     total cpu time spent up to now is      123.3 secs

     End of self-consistent calculation

 ------ SPIN UP ------------


          k = 0.0000 0.0000 0.0000 ( 57657 PWs)   bands (ev):

   -22.8203 -20.0734 -20.0219 -19.3111 -16.4472 -16.4455 -14.5346 -12.8453
   -12.5424 -11.8842 -11.8623 -10.7919  -9.8944  -9.8915  -8.4940  -8.0227
    -7.5558  -6.6726  -6.6397  -2.8889  -2.8577  -1.9092  -1.0235  -1.0126
    -0.7476  -0.6716  -0.3964  -0.0387   0.2336   0.2829   0.3567   0.4501
     0.4636   0.8092   0.8750   0.9854   1.2307   1.2921   1.4003   1.4874

     occupation numbers 
     1.0000   1.0000   1.0000   1.0000   1.0000   1.0000   1.0000   1.0000
     1.0000   1.0000   1.0000   1.0000   1.0000   1.0000   1.0000   1.0000
     1.0000   1.0000   1.0000   0.0000   0.0000   0.0000   0.0000   0.0000
     0.0000   0.0000   0.0000   0.0000   0.0000   0.0000   0.0000   0.0000
     0.0000   0.0000   0.0000   0.0000   0.0000   0.0000   0.0000   0.0000

 ------ SPIN DOWN ----------


          k = 0.0000 0.0000 0.0000 ( 57657 PWs)   bands (ev):

   -22.8009 -20.0393 -20.0114 -18.1662 -16.4354 -16.4316 -14.5300 -12.8379
   -12.5336 -11.8764 -11.8591 -10.7024  -9.8884  -9.8868  -8.0541  -7.9865
    -6.3472  -6.3248  -5.6529  -2.8342  -2.8207  -1.9053  -1.0226  -1.0084
    -0.7470  -0.6639  -0.3947  -0.0214   0.2355   0.2842   0.3609   0.4540
     0.4669   0.8234   0.8975   0.9912   1.2333   1.2949   1.4082   1.4938

     occupation numbers 
     1.0000   1.0000   1.0000   1.0000   1.0000   1.0000   1.0000   1.0000
     1.0000   1.0000   1.0000   1.0000   1.0000   1.0000   1.0000   1.0000
     1.0000   1.0000   0.0000   0.0000   0.0000   0.0000   0.0000   0.0000
     0.0000   0.0000   0.0000   0.0000   0.0000   0.0000   0.0000   0.0000
     0.0000   0.0000   0.0000   0.0000   0.0000   0.0000   0.0000   0.0000

     highest occupied, lowest unoccupied level (ev):    -6.3248   -5.6529

     The total energy is the sum of the following terms:

     one-electron contribution =    -695.81446862 Ry
     hartree contribution      =     350.11730242 Ry
     xc contribution           =     -30.80788324 Ry
     ewald contribution        =     268.46058250 Ry

!    total energy              =    -108.04446694 Ry
     Harris-Foulkes estimate   =    -108.04449869 Ry
     estimated scf accuracy    <       0.00005018 Ry

     The total energy is the sum of the following terms:

     one-electron contribution =    -695.81446862 Ry
     hartree contribution      =     350.11730242 Ry
     xc contribution           =     -30.80788324 Ry
     ewald contribution        =     268.46058250 Ry

     total magnetization       =     1.00 Bohr mag/cell
     absolute magnetization    =     1.08 Bohr mag/cell

     convergence has been achieved in   1 iterations
 
     Using Hirshfeld
        Amplitude [Ry a.u.] : -1.1600E-01
        Acceptor Fragment start :          13
        Acceptor Fragment end   :          13
        Donor Fragment start :           1
        Donor Fragment end   :          12
 
 
     Using Hirshfeld
        Amplitude [Ry a.u.] : -1.1600E-01
        Acceptor Fragment start :          13
        Acceptor Fragment end   :          13
        Donor Fragment start :           1
        Donor Fragment end   :          12
 
     E field correction              :  0.2672261066237458E+01 Ry    
 
     Donor charge                    :      0.1253982510646807 e     
     Acceptor charge                 :      0.1621315806978760 e     
     Difference of charges           :     -0.0367333296331971 e     
 
     epcdft_thr                      :  0.1000000000000000E-01 e     
     Surplus(+)/deficit(-) charge    :  0.9632666703668029E+00 e     
 
     -----------------------------------------------
 
                      SCF converged but...
 
     electron localization condition NOT satisfied
     restarting scf with different applied potential
 
     New field Amp                   : -0.1210000000000000E+00 Ry    
     charge density from previous step
 
     Using Hirshfeld
        Amplitude [Ry a.u.] : -1.2100E-01
        Acceptor Fragment start :          13
        Acceptor Fragment end   :          13
        Donor Fragment start :           1
        Donor Fragment end   :          12
 

     total cpu time spent up to now is      127.0 secs

     per-process dynamical memory:    60.4 Mb

     Self-consistent Calculation

     iteration #  1     ecut=    70.00 Ry     beta=0.70
     Davidson diagonalization with overlap
     WARNING:     1 eigenvalues not converged
     c_bands:  1 eigenvalues not converged
     WARNING:     1 eigenvalues not converged
     c_bands:  1 eigenvalues not converged
     ethr =  4.43E-07,  avg # of iterations = 20.0
 
     Magnetic moment per site:
     atom:    1    charge:    0.8410    magn:    0.0066    constr:    0.0000
     atom:    2    charge:    0.8437    magn:    0.0066    constr:    0.0000
     atom:    3    charge:    0.8429    magn:    0.0007    constr:    0.0000
     atom:    4    charge:    0.8389    magn:    0.0006    constr:    0.0000
     atom:    5    charge:    0.8410    magn:    0.0006    constr:    0.0000
     atom:    6    charge:    0.8420    magn:    0.0007    constr:    0.0000
     atom:    7    charge:    0.4952    magn:   -0.0001    constr:    0.0000
     atom:    8    charge:    0.4942    magn:   -0.0001    constr:    0.0000
     atom:    9    charge:    0.4940    magn:    0.0000    constr:    0.0000
     atom:   10    charge:    0.4951    magn:    0.0000    constr:    0.0000
     atom:   11    charge:    0.4942    magn:    0.0000    constr:    0.0000
     atom:   12    charge:    0.4941    magn:    0.0000    constr:    0.0000
     atom:   13    charge:    6.1253    magn:    0.8335    constr:    0.0000

     total cpu time spent up to now is      135.0 secs

     The total energy is the sum of the following terms:

     one-electron contribution =    -696.01740150 Ry
     hartree contribution      =     350.17981412 Ry
     xc contribution           =     -30.80894949 Ry
     ewald contribution        =     268.46058250 Ry

     total energy              =    -108.15956646 Ry
     Harris-Foulkes estimate   =    -108.15980118 Ry
     estimated scf accuracy    <       0.00029229 Ry

     total magnetization       =     1.00 Bohr mag/cell
     absolute magnetization    =     1.08 Bohr mag/cell

     iteration #  2     ecut=    70.00 Ry     beta=0.70
     Davidson diagonalization with overlap
     ethr =  7.90E-07,  avg # of iterations =  5.5
 
     Magnetic moment per site:
     atom:    1    charge:    0.8399    magn:    0.0066    constr:    0.0000
     atom:    2    charge:    0.8424    magn:    0.0066    constr:    0.0000
     atom:    3    charge:    0.8422    magn:    0.0007    constr:    0.0000
     atom:    4    charge:    0.8394    magn:    0.0006    constr:    0.0000
     atom:    5    charge:    0.8419    magn:    0.0006    constr:    0.0000
     atom:    6    charge:    0.8423    magn:    0.0007    constr:    0.0000
     atom:    7    charge:    0.4953    magn:   -0.0001    constr:    0.0000
     atom:    8    charge:    0.4944    magn:   -0.0001    constr:    0.0000
     atom:    9    charge:    0.4942    magn:    0.0000    constr:    0.0000
     atom:   10    charge:    0.4952    magn:    0.0000    constr:    0.0000
     atom:   11    charge:    0.4942    magn:    0.0000    constr:    0.0000
     atom:   12    charge:    0.4942    magn:    0.0000    constr:    0.0000
     atom:   13    charge:    6.1277    magn:    0.8330    constr:    0.0000

     total cpu time spent up to now is      138.1 secs

     The total energy is the sum of the following terms:

     one-electron contribution =    -695.89575980 Ry
     hartree contribution      =     350.14968997 Ry
     xc contribution           =     -30.80793384 Ry
     ewald contribution        =     268.46058250 Ry

     total energy              =    -108.15962128 Ry
     Harris-Foulkes estimate   =    -108.15984292 Ry
     estimated scf accuracy    <       0.00048115 Ry

     total magnetization       =     1.00 Bohr mag/cell
     absolute magnetization    =     1.08 Bohr mag/cell

     iteration #  3     ecut=    70.00 Ry     beta=0.70
     Davidson diagonalization with overlap
     ethr =  7.90E-07,  avg # of iterations =  3.0
 
     Magnetic moment per site:
     atom:    1    charge:    0.8398    magn:    0.0065    constr:    0.0000
     atom:    2    charge:    0.8425    magn:    0.0065    constr:    0.0000
     atom:    3    charge:    0.8420    magn:    0.0007    constr:    0.0000
     atom:    4    charge:    0.8391    magn:    0.0006    constr:    0.0000
     atom:    5    charge:    0.8416    magn:    0.0006    constr:    0.0000
     atom:    6    charge:    0.8420    magn:    0.0007    constr:    0.0000
     atom:    7    charge:    0.4953    magn:   -0.0001    constr:    0.0000
     atom:    8    charge:    0.4944    magn:   -0.0001    constr:    0.0000
     atom:    9    charge:    0.4942    magn:    0.0000    constr:    0.0000
     atom:   10    charge:    0.4952    magn:    0.0000    constr:    0.0000
     atom:   11    charge:    0.4943    magn:    0.0000    constr:    0.0000
     atom:   12    charge:    0.4942    magn:    0.0000    constr:    0.0000
     atom:   13    charge:    6.1301    magn:    0.8333    constr:    0.0000

     total cpu time spent up to now is      140.2 secs

     End of self-consistent calculation

 ------ SPIN UP ------------


          k = 0.0000 0.0000 0.0000 ( 57657 PWs)   bands (ev):

   -22.8793 -20.1278 -20.0816 -19.2870 -16.5048 -16.5027 -14.5927 -12.9018
   -12.6009 -11.9410 -11.9217 -10.8460  -9.9518  -9.9491  -8.5122  -8.0784
    -7.5733  -6.6445  -6.6140  -2.9435  -2.9157  -1.9694  -1.0847  -1.0734
    -0.8089  -0.7305  -0.4580  -0.0852   0.1827   0.2232   0.2978   0.3920
     0.4056   0.7505   0.8197   0.9352   1.1848   1.2490   1.3511   1.4444

     occupation numbers 
     1.0000   1.0000   1.0000   1.0000   1.0000   1.0000   1.0000   1.0000
     1.0000   1.0000   1.0000   1.0000   1.0000   1.0000   1.0000   1.0000
     1.0000   1.0000   1.0000   0.0000   0.0000   0.0000   0.0000   0.0000
     0.0000   0.0000   0.0000   0.0000   0.0000   0.0000   0.0000   0.0000
     0.0000   0.0000   0.0000   0.0000   0.0000   0.0000   0.0000   0.0000

 ------ SPIN DOWN ----------


          k = 0.0000 0.0000 0.0000 ( 57657 PWs)   bands (ev):

   -22.8610 -20.0970 -20.0714 -18.1328 -16.4936 -16.4899 -14.5883 -12.8949
   -12.5925 -11.9337 -11.9186 -10.7609  -9.9461  -9.9446  -8.1077  -8.0440
    -6.3165  -6.2963  -5.6230  -2.8934  -2.8795  -1.9655  -1.0839  -1.0693
    -0.8085  -0.7230  -0.4563  -0.0686   0.1844   0.2245   0.3014   0.3946
     0.4102   0.7639   0.8403   0.9408   1.1872   1.2508   1.3575   1.4510

     occupation numbers 
     1.0000   1.0000   1.0000   1.0000   1.0000   1.0000   1.0000   1.0000
     1.0000   1.0000   1.0000   1.0000   1.0000   1.0000   1.0000   1.0000
     1.0000   1.0000   0.0000   0.0000   0.0000   0.0000   0.0000   0.0000
     0.0000   0.0000   0.0000   0.0000   0.0000   0.0000   0.0000   0.0000
     0.0000   0.0000   0.0000   0.0000   0.0000   0.0000   0.0000   0.0000

     highest occupied, lowest unoccupied level (ev):    -6.2963   -5.6230

     The total energy is the sum of the following terms:

     one-electron contribution =    -695.95252964 Ry
     hartree contribution      =     350.14060771 Ry
     xc contribution           =     -30.80837496 Ry
     ewald contribution        =     268.46058250 Ry

!    total energy              =    -108.15971438 Ry
     Harris-Foulkes estimate   =    -108.15971960 Ry
     estimated scf accuracy    <       0.00001064 Ry

     The total energy is the sum of the following terms:

     one-electron contribution =    -695.95252964 Ry
     hartree contribution      =     350.14060771 Ry
     xc contribution           =     -30.80837496 Ry
     ewald contribution        =     268.46058250 Ry

     total magnetization       =     1.00 Bohr mag/cell
     absolute magnetization    =     1.08 Bohr mag/cell

     convergence has been achieved in   3 iterations
 
     Using Hirshfeld
        Amplitude [Ry a.u.] : -1.2100E-01
        Acceptor Fragment start :          13
        Acceptor Fragment end   :          13
        Donor Fragment start :           1
        Donor Fragment end   :          12
 
 
     Using Hirshfeld
        Amplitude [Ry a.u.] : -1.2100E-01
        Acceptor Fragment start :          13
        Acceptor Fragment end   :          13
        Donor Fragment start :           1
        Donor Fragment end   :          12
 
     E field correction              :  0.2788720492934120E+01 Ry    
 
     Donor charge                    :      0.1201074965603688 e     
     Acceptor charge                 :      0.1673842976687796 e     
     Difference of charges           :     -0.0472768011084099 e     
 
     epcdft_thr                      :  0.1000000000000000E-01 e     
     Surplus(+)/deficit(-) charge    :  0.9527231988915901E+00 e     
 
     -----------------------------------------------
 
                      SCF converged but...
 
     electron localization condition NOT satisfied
     restarting scf with different applied potential
 
     New field Amp                   : -0.1260000000000000E+00 Ry    
     charge density from previous step
 
     Using Hirshfeld
        Amplitude [Ry a.u.] : -1.2600E-01
        Acceptor Fragment start :          13
        Acceptor Fragment end   :          13
        Donor Fragment start :           1
        Donor Fragment end   :          12
 

     total cpu time spent up to now is      143.8 secs

     per-process dynamical memory:    60.4 Mb

     Self-consistent Calculation

     iteration #  1     ecut=    70.00 Ry     beta=0.70
     Davidson diagonalization with overlap
     WARNING:     1 eigenvalues not converged
     c_bands:  1 eigenvalues not converged
     ethr =  7.90E-07,  avg # of iterations = 16.0
 
     Magnetic moment per site:
     atom:    1    charge:    0.8402    magn:    0.0061    constr:    0.0000
     atom:    2    charge:    0.8424    magn:    0.0061    constr:    0.0000
     atom:    3    charge:    0.8422    magn:    0.0008    constr:    0.0000
     atom:    4    charge:    0.8398    magn:    0.0005    constr:    0.0000
     atom:    5    charge:    0.8424    magn:    0.0006    constr:    0.0000
     atom:    6    charge:    0.8425    magn:    0.0008    constr:    0.0000
     atom:    7    charge:    0.4953    magn:   -0.0001    constr:    0.0000
     atom:    8    charge:    0.4944    magn:   -0.0001    constr:    0.0000
     atom:    9    charge:    0.4941    magn:    0.0000    constr:    0.0000
     atom:   10    charge:    0.4951    magn:    0.0000    constr:    0.0000
     atom:   11    charge:    0.4942    magn:    0.0000    constr:    0.0000
     atom:   12    charge:    0.4941    magn:    0.0000    constr:    0.0000
     atom:   13    charge:    6.1196    magn:    0.8367    constr:    0.0000

     total cpu time spent up to now is      149.9 secs

     End of self-consistent calculation

 ------ SPIN UP ------------


          k = 0.0000 0.0000 0.0000 ( 57657 PWs)   bands (ev):

   -22.9595 -20.2040 -20.1616 -19.1951 -16.5824 -16.5803 -14.6692 -12.9760
   -12.6809 -12.0178 -11.9997 -10.9154 -10.0292 -10.0265  -8.5220  -8.1509
    -7.5583  -6.5576  -6.5309  -3.0174  -2.9915  -2.0365  -1.1519  -1.1402
    -0.8754  -0.7948  -0.5248  -0.1369   0.1276   0.1602   0.2357   0.3295
     0.3460   0.6844   0.7547   0.8828   1.1371   1.2034   1.2991   1.3985

     occupation numbers 
     1.0000   1.0000   1.0000   1.0000   1.0000   1.0000   1.0000   1.0000
     1.0000   1.0000   1.0000   1.0000   1.0000   1.0000   1.0000   1.0000
     1.0000   1.0000   1.0000   0.0000   0.0000   0.0000   0.0000   0.0000
     0.0000   0.0000   0.0000   0.0000   0.0000   0.0000   0.0000   0.0000
     0.0000   0.0000   0.0000   0.0000   0.0000   0.0000   0.0000   0.0000

 ------ SPIN DOWN ----------


          k = 0.0000 0.0000 0.0000 ( 57657 PWs)   bands (ev):

   -22.9415 -20.1753 -20.1513 -18.0386 -16.5710 -16.5675 -14.6648 -12.9691
   -12.6725 -12.0105 -11.9965 -10.8354 -10.0235 -10.0220  -8.1776  -8.1182
    -6.2294  -6.2121  -5.5464  -2.9678  -2.9543  -2.0325  -1.1511  -1.1360
    -0.8749  -0.7874  -0.5231  -0.1207   0.1293   0.1614   0.2390   0.3311
     0.3519   0.7012   0.7721   0.8882   1.1395   1.2046   1.3043   1.4051

     occupation numbers 
     1.0000   1.0000   1.0000   1.0000   1.0000   1.0000   1.0000   1.0000
     1.0000   1.0000   1.0000   1.0000   1.0000   1.0000   1.0000   1.0000
     1.0000   1.0000   0.0000   0.0000   0.0000   0.0000   0.0000   0.0000
     0.0000   0.0000   0.0000   0.0000   0.0000   0.0000   0.0000   0.0000
     0.0000   0.0000   0.0000   0.0000   0.0000   0.0000   0.0000   0.0000

     highest occupied, lowest unoccupied level (ev):    -6.2121   -5.5464

     The total energy is the sum of the following terms:

     one-electron contribution =    -696.10579657 Ry
     hartree contribution      =     350.17734176 Ry
     xc contribution           =     -30.80707572 Ry
     ewald contribution        =     268.46058250 Ry

!    total energy              =    -108.27494804 Ry
     Harris-Foulkes estimate   =    -108.27502303 Ry
     estimated scf accuracy    <       0.00008574 Ry

     The total energy is the sum of the following terms:

     one-electron contribution =    -696.10579657 Ry
     hartree contribution      =     350.17734176 Ry
     xc contribution           =     -30.80707572 Ry
     ewald contribution        =     268.46058250 Ry

     total magnetization       =     1.00 Bohr mag/cell
     absolute magnetization    =     1.08 Bohr mag/cell

     convergence has been achieved in   1 iterations
 
     Using Hirshfeld
        Amplitude [Ry a.u.] : -1.2600E-01
        Acceptor Fragment start :          13
        Acceptor Fragment end   :          13
        Donor Fragment start :           1
        Donor Fragment end   :          12
 
 
     Using Hirshfeld
        Amplitude [Ry a.u.] : -1.2600E-01
        Acceptor Fragment start :          13
        Acceptor Fragment end   :          13
        Donor Fragment start :           1
        Donor Fragment end   :          12
 
     E field correction              :  0.2906203904620782E+01 Ry    
 
     Donor charge                    :      0.1114991868469346 e     
     Acceptor charge                 :      0.1766095409801141 e     
     Difference of charges           :     -0.0651103541331821 e     
 
     epcdft_thr                      :  0.1000000000000000E-01 e     
     Surplus(+)/deficit(-) charge    :  0.9348896458668179E+00 e     
 
     -----------------------------------------------
 
                      SCF converged but...
 
     electron localization condition NOT satisfied
     restarting scf with different applied potential
 
     New field Amp                   : -0.1310000000000000E+00 Ry    
     charge density from previous step
 
     Using Hirshfeld
        Amplitude [Ry a.u.] : -1.3100E-01
        Acceptor Fragment start :          13
        Acceptor Fragment end   :          13
        Donor Fragment start :           1
        Donor Fragment end   :          12
 

     total cpu time spent up to now is      153.6 secs

     per-process dynamical memory:    60.4 Mb

     Self-consistent Calculation

     iteration #  1     ecut=    70.00 Ry     beta=0.70
     Davidson diagonalization with overlap
     WARNING:     1 eigenvalues not converged
     c_bands:  1 eigenvalues not converged
     WARNING:     1 eigenvalues not converged
     c_bands:  1 eigenvalues not converged
     ethr =  7.90E-07,  avg # of iterations = 20.0
 
     Magnetic moment per site:
     atom:    1    charge:    0.8402    magn:    0.0060    constr:    0.0000
     atom:    2    charge:    0.8431    magn:    0.0060    constr:    0.0000
     atom:    3    charge:    0.8424    magn:    0.0008    constr:    0.0000
     atom:    4    charge:    0.8386    magn:    0.0005    constr:    0.0000
     atom:    5    charge:    0.8409    magn:    0.0005    constr:    0.0000
     atom:    6    charge:    0.8418    magn:    0.0008    constr:    0.0000
     atom:    7    charge:    0.4955    magn:   -0.0001    constr:    0.0000
     atom:    8    charge:    0.4945    magn:   -0.0001    constr:    0.0000
     atom:    9    charge:    0.4943    magn:   -0.0001    constr:    0.0000
     atom:   10    charge:    0.4953    magn:    0.0000    constr:    0.0000
     atom:   11    charge:    0.4944    magn:    0.0000    constr:    0.0000
     atom:   12    charge:    0.4943    magn:    0.0000    constr:    0.0000
     atom:   13    charge:    6.1233    magn:    0.8374    constr:    0.0000

     total cpu time spent up to now is      160.8 secs

     The total energy is the sum of the following terms:

[...]
    -4.0874  -3.8592  -3.6694  -3.0578  -3.0188  -2.9592  -2.8673  -2.8282
    -2.5961  -2.4378  -2.0839  -1.9770  -1.9168  -1.6867  -1.5268  -1.3825

     occupation numbers 
     1.0000   1.0000   1.0000   1.0000   1.0000   1.0000   1.0000   1.0000
     1.0000   1.0000   1.0000   1.0000   1.0000   1.0000   1.0000   1.0000
     1.0000   1.0000   0.0000   0.0000   0.0000   0.0000   0.0000   0.0000
     0.0000   0.0000   0.0000   0.0000   0.0000   0.0000   0.0000   0.0000
     0.0000   0.0000   0.0000   0.0000   0.0000   0.0000   0.0000   0.0000

     highest occupied, lowest unoccupied level (ev):    -6.0832   -5.4443

     The total energy is the sum of the following terms:

     one-electron contribution =    -702.93870108 Ry
     hartree contribution      =     350.85967460 Ry
     xc contribution           =     -30.74758037 Ry
     ewald contribution        =     268.46058250 Ry

!    total energy              =    -114.36602434 Ry
     Harris-Foulkes estimate   =    -114.36608278 Ry
     estimated scf accuracy    <       0.00007121 Ry

     The total energy is the sum of the following terms:

     one-electron contribution =    -702.93870108 Ry
     hartree contribution      =     350.85967460 Ry
     xc contribution           =     -30.74758037 Ry
     ewald contribution        =     268.46058250 Ry

     total magnetization       =     1.00 Bohr mag/cell
     absolute magnetization    =     1.55 Bohr mag/cell

     convergence has been achieved in  11 iterations
 
     Using Hirshfeld
        Amplitude [Ry a.u.] : -3.8600E-01
        Acceptor Fragment start :          13
        Acceptor Fragment end   :          13
        Donor Fragment start :           1
        Donor Fragment end   :          12
 
 
     Using Hirshfeld
        Amplitude [Ry a.u.] : -3.8600E-01
        Acceptor Fragment start :          13
        Acceptor Fragment end   :          13
        Donor Fragment start :           1
        Donor Fragment end   :          12
 
     E field correction              :  0.9251709699260598E+01 Ry    
 
     Donor charge                    :     -0.3341547044898157 e     
     Acceptor charge                 :      0.6340051381541763 e     
     Difference of charges           :     -0.9681598426439884 e     
 
     epcdft_thr                      :  0.1000000000000000E-01 e     
     Surplus(+)/deficit(-) charge    :  0.3184015735601164E-01 e     
 
     -----------------------------------------------
 
                      SCF converged but...
 
     electron localization condition NOT satisfied
     restarting scf with different applied potential
 
     New field Amp                   : -0.3910000000000002E+00 Ry    
     charge density from previous step
 
     Using Hirshfeld
        Amplitude [Ry a.u.] : -3.9100E-01
        Acceptor Fragment start :          13
        Acceptor Fragment end   :          13
        Donor Fragment start :           1
        Donor Fragment end   :          12
 

     total cpu time spent up to now is     1739.7 secs

     per-process dynamical memory:   183.2 Mb

     Self-consistent Calculation

     iteration #  1     ecut=    70.00 Ry     beta=0.70
     Davidson diagonalization with overlap
     WARNING:     1 eigenvalues not converged
     c_bands:  1 eigenvalues not converged
     ethr =  8.06E-07,  avg # of iterations = 19.5
 
     Magnetic moment per site:
     atom:    1    charge:    0.8474    magn:   -0.0085    constr:    0.0000
     atom:    2    charge:    0.8499    magn:   -0.0086    constr:    0.0000
     atom:    3    charge:    0.8521    magn:   -0.0151    constr:    0.0000
     atom:    4    charge:    0.8484    magn:   -0.0147    constr:    0.0000
     atom:    5    charge:    0.8509    magn:   -0.0149    constr:    0.0000
     atom:    6    charge:    0.8521    magn:   -0.0151    constr:    0.0000
     atom:    7    charge:    0.4987    magn:    0.0000    constr:    0.0000
     atom:    8    charge:    0.4978    magn:    0.0000    constr:    0.0000
     atom:    9    charge:    0.4963    magn:    0.0002    constr:    0.0000
     atom:   10    charge:    0.4969    magn:    0.0001    constr:    0.0000
     atom:   11    charge:    0.4960    magn:    0.0002    constr:    0.0000
     atom:   12    charge:    0.4963    magn:    0.0002    constr:    0.0000
     atom:   13    charge:    5.6129    magn:    1.2808    constr:    0.0000

     total cpu time spent up to now is     1755.0 secs

     The total energy is the sum of the following terms:

     one-electron contribution =    -703.99820796 Ry
     hartree contribution      =     351.51853773 Ry
     xc contribution           =     -30.72635519 Ry
     ewald contribution        =     268.46058250 Ry

     total energy              =    -114.44355256 Ry
     Harris-Foulkes estimate   =    -114.48877660 Ry
     estimated scf accuracy    <       0.05517952 Ry

     total magnetization       =     1.00 Bohr mag/cell
     absolute magnetization    =     2.05 Bohr mag/cell

     iteration #  2     ecut=    70.00 Ry     beta=0.70
     Davidson diagonalization with overlap
     ethr =  1.49E-04,  avg # of iterations = 18.0
 
     Magnetic moment per site:
     atom:    1    charge:    0.8443    magn:   -0.0065    constr:    0.0000
     atom:    2    charge:    0.8468    magn:   -0.0066    constr:    0.0000
     atom:    3    charge:    0.8454    magn:   -0.0124    constr:    0.0000
     atom:    4    charge:    0.8410    magn:   -0.0121    constr:    0.0000
     atom:    5    charge:    0.8435    magn:   -0.0122    constr:    0.0000
     atom:    6    charge:    0.8454    magn:   -0.0124    constr:    0.0000
     atom:    7    charge:    0.4992    magn:    0.0002    constr:    0.0000
     atom:    8    charge:    0.4982    magn:    0.0002    constr:    0.0000
     atom:    9    charge:    0.4966    magn:    0.0004    constr:    0.0000
     atom:   10    charge:    0.4972    magn:    0.0003    constr:    0.0000
     atom:   11    charge:    0.4963    magn:    0.0003    constr:    0.0000
     atom:   12    charge:    0.4966    magn:    0.0004    constr:    0.0000
     atom:   13    charge:    5.7520    magn:    1.2047    constr:    0.0000

     total cpu time spent up to now is     1774.4 secs

     The total energy is the sum of the following terms:

     one-electron contribution =    -701.06515219 Ry
     hartree contribution      =     350.96362457 Ry
     xc contribution           =     -30.73690992 Ry
     ewald contribution        =     268.46058250 Ry

     total energy              =    -114.47984769 Ry
     Harris-Foulkes estimate   =    -114.58353962 Ry
     estimated scf accuracy    <       0.30313862 Ry

     total magnetization       =     1.00 Bohr mag/cell
     absolute magnetization    =     1.14 Bohr mag/cell

     iteration #  3     ecut=    70.00 Ry     beta=0.70
     Davidson diagonalization with overlap
     ethr =  1.49E-04,  avg # of iterations =  9.5
 
     Magnetic moment per site:
     atom:    1    charge:    0.8421    magn:   -0.0055    constr:    0.0000
     atom:    2    charge:    0.8446    magn:   -0.0055    constr:    0.0000
     atom:    3    charge:    0.8450    magn:   -0.0113    constr:    0.0000
     atom:    4    charge:    0.8412    magn:   -0.0109    constr:    0.0000
     atom:    5    charge:    0.8437    magn:   -0.0110    constr:    0.0000
     atom:    6    charge:    0.8450    magn:   -0.0113    constr:    0.0000
     atom:    7    charge:    0.4991    magn:    0.0002    constr:    0.0000
     atom:    8    charge:    0.4982    magn:    0.0002    constr:    0.0000
     atom:    9    charge:    0.4964    magn:    0.0004    constr:    0.0000
     atom:   10    charge:    0.4969    magn:    0.0004    constr:    0.0000
     atom:   11    charge:    0.4960    magn:    0.0004    constr:    0.0000
     atom:   12    charge:    0.4964    magn:    0.0004    constr:    0.0000
     atom:   13    charge:    5.7858    magn:    1.1698    constr:    0.0000

     total cpu time spent up to now is     1783.2 secs

     The total energy is the sum of the following terms:

     one-electron contribution =    -702.03130259 Ry
     hartree contribution      =     350.88334843 Ry
     xc contribution           =     -30.74011137 Ry
     ewald contribution        =     268.46058250 Ry

     total energy              =    -114.48424634 Ry
     Harris-Foulkes estimate   =    -114.49541442 Ry
     estimated scf accuracy    <       0.06857618 Ry

     total magnetization       =     1.00 Bohr mag/cell
     absolute magnetization    =     1.22 Bohr mag/cell

     iteration #  4     ecut=    70.00 Ry     beta=0.70
     Davidson diagonalization with overlap
     ethr =  1.49E-04,  avg # of iterations =  1.0
 
     Magnetic moment per site:
     atom:    1    charge:    0.8419    magn:   -0.0050    constr:    0.0000
     atom:    2    charge:    0.8444    magn:   -0.0050    constr:    0.0000
     atom:    3    charge:    0.8447    magn:   -0.0109    constr:    0.0000
     atom:    4    charge:    0.8406    magn:   -0.0105    constr:    0.0000
     atom:    5    charge:    0.8431    magn:   -0.0106    constr:    0.0000
     atom:    6    charge:    0.8447    magn:   -0.0109    constr:    0.0000
     atom:    7    charge:    0.4990    magn:    0.0003    constr:    0.0000
     atom:    8    charge:    0.4980    magn:    0.0003    constr:    0.0000
     atom:    9    charge:    0.4964    magn:    0.0004    constr:    0.0000
     atom:   10    charge:    0.4968    magn:    0.0004    constr:    0.0000
     atom:   11    charge:    0.4959    magn:    0.0004    constr:    0.0000
     atom:   12    charge:    0.4964    magn:    0.0004    constr:    0.0000
     atom:   13    charge:    5.7981    magn:    1.1582    constr:    0.0000

     total cpu time spent up to now is     1785.5 secs

     The total energy is the sum of the following terms:

     one-electron contribution =    -702.55623487 Ry
     hartree contribution      =     350.85906187 Ry
     xc contribution           =     -30.74092924 Ry
     ewald contribution        =     268.46058250 Ry

     total energy              =    -114.48487023 Ry
     Harris-Foulkes estimate   =    -114.48681985 Ry
     estimated scf accuracy    <       0.01575823 Ry

     total magnetization       =     1.00 Bohr mag/cell
     absolute magnetization    =     1.40 Bohr mag/cell

     iteration #  5     ecut=    70.00 Ry     beta=0.70
     Davidson diagonalization with overlap
     ethr =  4.26E-05,  avg # of iterations =  7.0
 
     Magnetic moment per site:
     atom:    1    charge:    0.8418    magn:   -0.0049    constr:    0.0000
     atom:    2    charge:    0.8443    magn:   -0.0049    constr:    0.0000
     atom:    3    charge:    0.8447    magn:   -0.0110    constr:    0.0000
     atom:    4    charge:    0.8407    magn:   -0.0104    constr:    0.0000
     atom:    5    charge:    0.8432    magn:   -0.0105    constr:    0.0000
     atom:    6    charge:    0.8447    magn:   -0.0109    constr:    0.0000
     atom:    7    charge:    0.4989    magn:    0.0003    constr:    0.0000
     atom:    8    charge:    0.4980    magn:    0.0003    constr:    0.0000
     atom:    9    charge:    0.4963    magn:    0.0004    constr:    0.0000
     atom:   10    charge:    0.4968    magn:    0.0004    constr:    0.0000
     atom:   11    charge:    0.4959    magn:    0.0004    constr:    0.0000
     atom:   12    charge:    0.4963    magn:    0.0004    constr:    0.0000
     atom:   13    charge:    5.8004    magn:    1.1572    constr:    0.0000

     total cpu time spent up to now is     1792.5 secs

     The total energy is the sum of the following terms:

     one-electron contribution =    -702.94616198 Ry
     hartree contribution      =     350.86710369 Ry
     xc contribution           =     -30.74245266 Ry
     ewald contribution        =     268.46058250 Ry

     total energy              =    -114.48569047 Ry
     Harris-Foulkes estimate   =    -114.48579548 Ry
     estimated scf accuracy    <       0.00129547 Ry

     total magnetization       =     1.00 Bohr mag/cell
     absolute magnetization    =     1.55 Bohr mag/cell

     iteration #  6     ecut=    70.00 Ry     beta=0.70
     Davidson diagonalization with overlap
     WARNING:     1 eigenvalues not converged
     c_bands:  1 eigenvalues not converged
     WARNING:     1 eigenvalues not converged
     c_bands:  1 eigenvalues not converged
     ethr =  3.50E-06,  avg # of iterations = 20.0
 
     Magnetic moment per site:
     atom:    1    charge:    0.8423    magn:   -0.0042    constr:    0.0000
     atom:    2    charge:    0.8448    magn:   -0.0043    constr:    0.0000
     atom:    3    charge:    0.8456    magn:   -0.0106    constr:    0.0000
     atom:    4    charge:    0.8412    magn:   -0.0100    constr:    0.0000
     atom:    5    charge:    0.8437    magn:   -0.0101    constr:    0.0000
     atom:    6    charge:    0.8456    magn:   -0.0106    constr:    0.0000
     atom:    7    charge:    0.4983    magn:    0.0003    constr:    0.0000
     atom:    8    charge:    0.4974    magn:    0.0003    constr:    0.0000
     atom:    9    charge:    0.4958    magn:    0.0004    constr:    0.0000
     atom:   10    charge:    0.4966    magn:    0.0005    constr:    0.0000
     atom:   11    charge:    0.4956    magn:    0.0004    constr:    0.0000
     atom:   12    charge:    0.4958    magn:    0.0005    constr:    0.0000
     atom:   13    charge:    5.8085    magn:    1.1433    constr:    0.0000

     total cpu time spent up to now is     1809.7 secs

     End of self-consistent calculation

 ------ SPIN UP ------------


          k = 0.0000 0.0000 0.0000 ( 57657 PWs)   bands (ev):

   -25.3301 -22.5851 -22.5402 -19.5995 -19.0053 -18.9986 -17.1687 -15.4924
   -15.0556 -14.5135 -14.4796 -13.2286 -12.4975 -12.4958 -10.5490 -10.4936
    -8.0731  -6.7677  -6.7496  -5.4122  -5.3774  -5.1512  -4.2979  -4.2877
    -4.0923  -3.8570  -3.6807  -3.0873  -3.0197  -2.9541  -2.8726  -2.8432
    -2.6006  -2.4285  -2.0900  -1.9529  -1.8700  -1.6972  -1.5271  -1.3820

     occupation numbers 
     1.0000   1.0000   1.0000   1.0000   1.0000   1.0000   1.0000   1.0000
     1.0000   1.0000   1.0000   1.0000   1.0000   1.0000   1.0000   1.0000
     1.0000   1.0000   1.0000   0.0000   0.0000   0.0000   0.0000   0.0000
     0.0000   0.0000   0.0000   0.0000   0.0000   0.0000   0.0000   0.0000
     0.0000   0.0000   0.0000   0.0000   0.0000   0.0000   0.0000   0.0000

 ------ SPIN DOWN ----------


          k = 0.0000 0.0000 0.0000 ( 57657 PWs)   bands (ev):

   -25.3748 -22.6329 -22.5993 -19.0504 -19.0491 -18.0135 -17.1854 -15.5313
   -15.0761 -14.5250 -14.4944 -13.3438 -12.5140 -12.5111 -10.6727 -10.6511
    -6.1329  -6.1125  -5.4891  -5.4869  -5.3494  -5.1848  -4.3404  -4.3249
    -4.1444  -3.9169  -3.7253  -3.1147  -3.0778  -3.0173  -2.9237  -2.8824
    -2.6516  -2.4969  -2.1403  -2.0331  -1.9732  -1.7423  -1.5841  -1.4302

     occupation numbers 
     1.0000   1.0000   1.0000   1.0000   1.0000   1.0000   1.0000   1.0000
     1.0000   1.0000   1.0000   1.0000   1.0000   1.0000   1.0000   1.0000
     1.0000   1.0000   0.0000   0.0000   0.0000   0.0000   0.0000   0.0000
     0.0000   0.0000   0.0000   0.0000   0.0000   0.0000   0.0000   0.0000
     0.0000   0.0000   0.0000   0.0000   0.0000   0.0000   0.0000   0.0000

     highest occupied, lowest unoccupied level (ev):    -6.1125   -5.4891

     The total energy is the sum of the following terms:

     one-electron contribution =    -703.10950161 Ry
     hartree contribution      =     350.91037473 Ry
     xc contribution           =     -30.74748751 Ry
     ewald contribution        =     268.46058250 Ry

!    total energy              =    -114.48603189 Ry
     Harris-Foulkes estimate   =    -114.48608699 Ry
     estimated scf accuracy    <       0.00008455 Ry

     The total energy is the sum of the following terms:

     one-electron contribution =    -703.10950161 Ry
     hartree contribution      =     350.91037473 Ry
     xc contribution           =     -30.74748751 Ry
     ewald contribution        =     268.46058250 Ry

     total magnetization       =     1.00 Bohr mag/cell
     absolute magnetization    =     1.59 Bohr mag/cell

     convergence has been achieved in   6 iterations
 
     Using Hirshfeld
        Amplitude [Ry a.u.] : -3.9100E-01
        Acceptor Fragment start :          13
        Acceptor Fragment end   :          13
        Donor Fragment start :           1
        Donor Fragment end   :          12
 
 
     Using Hirshfeld
        Amplitude [Ry a.u.] : -3.9100E-01
        Acceptor Fragment start :          13
        Acceptor Fragment end   :          13
        Donor Fragment start :           1
        Donor Fragment end   :          12
 
     E field correction              :  0.9383746838560928E+01 Ry    
 
     Donor charge                    :     -0.3499302269128215 e     
     Acceptor charge                 :      0.6494223013759886 e     
     Difference of charges           :     -0.9993525282888100 e     

     Writing output data file right.save
 
     init_run     :      6.17s CPU      6.17s WALL (       1 calls)
     electrons    :   1658.97s CPU   1658.97s WALL (      62 calls)
     update_pot   :     20.36s CPU     20.36s WALL (      61 calls)

     Called by init_run:
     wfcinit      :      2.25s CPU      2.25s WALL (       1 calls)
     potinit      :      0.51s CPU      0.51s WALL (       1 calls)

     Called by electrons:
     c_bands      :   1395.41s CPU   1395.41s WALL (     244 calls)
     sum_band     :     22.66s CPU     22.66s WALL (     244 calls)
     v_of_rho     :     93.68s CPU     93.68s WALL (     303 calls)
     v_h          :      0.79s CPU      0.79s WALL (     303 calls)
     v_xc         :     92.89s CPU     92.89s WALL (     303 calls)
     mix_rho      :      1.19s CPU      1.19s WALL (     244 calls)

     Called by c_bands:
     init_us_2    :      1.02s CPU      1.02s WALL (     978 calls)
     regterg      :   1384.83s CPU   1384.83s WALL (     490 calls)

     Called by sum_band:

     Called by *egterg:
     h_psi        :    101.50s CPU    101.49s WALL (    4938 calls)
     g_psi        :      1.82s CPU      1.82s WALL (    4446 calls)
     rdiaghg      :   1107.59s CPU   1107.59s WALL (    4806 calls)
     regterg:over :     26.59s CPU     26.59s WALL (    4446 calls)
     regterg:upda :     23.53s CPU     23.53s WALL (    4446 calls)
     regterg:last :      6.15s CPU      6.15s WALL (     641 calls)
     rdiaghg:chol :     50.57s CPU     50.57s WALL (    4806 calls)
     rdiaghg:inve :     40.08s CPU     40.09s WALL (    4806 calls)
     rdiaghg:para :    139.60s CPU    139.61s WALL (    9612 calls)

     Called by h_psi:
     h_psi:vloc   :     93.37s CPU     93.37s WALL (    4938 calls)
     h_psi:vnl    :      7.95s CPU      7.95s WALL (    4938 calls)
     add_vuspsi   :      4.83s CPU      4.83s WALL (    4938 calls)

     General routines
     calbec       :      3.06s CPU      3.06s WALL (    4938 calls)
     fft          :     82.73s CPU     82.75s WALL (   44817 calls)
     fftw         :     97.19s CPU     97.23s WALL (   78788 calls)
 
     Parallel routines
     fft_scatter  :     93.96s CPU     93.96s WALL (  123605 calls)
 
     PWSCF        : 30m21.28s CPU    30m21.28s WALL

 
   This run was terminated on:   0:36: 3  20Aug2015            

=------------------------------------------------------------------------------=
   JOB DONE.
=------------------------------------------------------------------------------=
2015-08-20 00:36:20.884 (INFO ) [0xfffa301c410] CET-42400-53731-128:1291036:ibm.runjob.client.Job: exited with status 0
2015-08-20 00:36:20.884 (INFO ) [0xfffa301c410] tatu.runjob.client: task exited with status 0
2015-08-20 00:36:20.885 (INFO ) [0xfff8c0234e0] 12670:tatu.runjob.monitor: monitor terminating
2015-08-20 00:36:20.889 (INFO ) [0xfffa301c410] tatu.runjob.client: monitor completed
