2015-08-24 16:27:39.125 (INFO ) [0xfff93c5c410] ibm.runjob.AbstractOptions: using properties file /bgsys/local/etc/bg.properties
2015-08-24 16:27:39.134 (INFO ) [0xfff93c5c410] ibm.runjob.AbstractOptions: max open file descriptors: 65536
2015-08-24 16:27:39.134 (INFO ) [0xfff93c5c410] ibm.runjob.AbstractOptions: core file limit: 18446744073709551615
2015-08-24 16:27:39.135 (INFO ) [0xfff93c5c410] 26073:tatu.runjob.client: scheduler job id is 568404
2015-08-24 16:27:39.139 (INFO ) [0xfffa6ca34e0] 26073:tatu.runjob.monitor: monitor started
2015-08-24 16:27:43.011 (INFO ) [0xfffa6ca34e0] 26073:tatu.runjob.monitor: task record 1239360 created
2015-08-24 16:27:43.013 (INFO ) [0xfff93c5c410] CET-22440-33771-128:26073:ibm.runjob.client.options.Parser: set local socket to runjob_mux from properties file
2015-08-24 16:27:45.835 (INFO ) [0xfff93c5c410] CET-22440-33771-128:1297611:ibm.runjob.client.Job: job 1297611 started

     Program PWSCF v.5.1.1 starts on 24Aug2015 at 16:27:45 

     This program is part of the open-source Quantum ESPRESSO suite
     for quantum simulation of materials; please cite
         "P. Giannozzi et al., J. Phys.:Condens. Matter 21 395502 (2009);
          URL http://www.quantum-espresso.org", 
     in publications or presentations arising from this work. More details at
     http://www.quantum-espresso.org/quote

     Parallel version (MPI & OpenMP), running on    1024 processor cores
     Number of MPI processes:              1024
     Threads/MPI process:                     1
     R & G space division:  proc/nbgrp/npool/nimage =    1024
     Waiting for input...
     Reading input from standard input

     Current dimensions of program PWSCF are:
     Max number of different atomic species (ntypx) = 10
     Max number of k-points (npk) =  40000
     Max angular momentum in pseudopotentials (lmaxx) =  3
               file C.pbe-mt_fhi.UPF: wavefunction(s)  4f renormalized
               file H.pbe-mt_fhi.UPF: wavefunction(s)  2p 4f renormalized
               file Cl.pbe-mt_fhi.UPF: wavefunction(s)  4f renormalized

     gamma-point specific algorithms are used
     Message from routine setup:
     the system is metallic, specify occupations

     Subspace diagonalization in iterative solution of the eigenvalue problem:
     scalapack distributed-memory algorithm (size of sub-group: 22* 22 procs)

 
     Parallelization info
     --------------------
     sticks:   dense  smooth     PW     G-vecs:    dense   smooth      PW
     Min          34      34      7                 4954     4954     604
     Max          36      36     10                 5008     5008     654
     Sum       35781   35781   8969              5096985  5096985  637483
     Tot       17891   17891   4485
 
     Generating pointlists ...
     new r_m :   0.0298 (alat units)  0.8450 (a.u.) for type    1
     new r_m :   0.0298 (alat units)  0.8450 (a.u.) for type    2
     new r_m :   0.0847 (alat units)  2.4011 (a.u.) for type    3
2015-08-24 16:27:52.231 (INFO ) [0xfffa6ca34e0] 26073:tatu.runjob.monitor: tracklib completed


     bravais-lattice index     =            1
     lattice parameter (alat)  =      28.3459  a.u.
     unit-cell volume          =   22775.6292 (a.u.)^3
     number of atoms/cell      =           13
     number of atomic types    =            3
     number of electrons       =        37.00 (up:  19.00, down:  18.00)
     number of Kohn-Sham states=           40
     kinetic-energy cutoff     =     140.0000  Ry
     charge density cutoff     =     560.0000  Ry
     convergence threshold     =      1.0E-12
     mixing beta               =       0.7000
     number of iterations used =            8  plain     mixing
     Exchange-correlation      = PBE ( 1  4  3  4 0 0)
     Assuming isolated system, Martyna-Tuckerman method


     celldm(1)=  28.345892  celldm(2)=   0.000000  celldm(3)=   0.000000
     celldm(4)=   0.000000  celldm(5)=   0.000000  celldm(6)=   0.000000

     crystal axes: (cart. coord. in units of alat)
               a(1) = (   1.000000   0.000000   0.000000 )  
               a(2) = (   0.000000   1.000000   0.000000 )  
               a(3) = (   0.000000   0.000000   1.000000 )  

     reciprocal axes: (cart. coord. in units 2 pi/alat)
               b(1) = (  1.000000  0.000000  0.000000 )  
               b(2) = (  0.000000  1.000000  0.000000 )  
               b(3) = (  0.000000  0.000000  1.000000 )  


     PseudoPot. # 1 for  C read from file:
     ./C.pbe-mt_fhi.UPF
     MD5 check sum: 058ca341f9d6d5327d9962fd88a91b65
     Pseudo is Norm-conserving, Zval =  4.0
     Generated using FHI98PP, converted with fhi2upf.x v.5.0.2
     Using radial grid of  461 points,  3 beta functions with: 
                l(1) =   0
                l(2) =   1
                l(3) =   3

     PseudoPot. # 2 for  H read from file:
     ./H.pbe-mt_fhi.UPF
     MD5 check sum: a19bd5488733b3d98581df861506e80d
     Pseudo is Norm-conserving, Zval =  1.0
     Generated using FHI98PP, converted with fhi2upf.x v.5.0.2
     Using radial grid of  387 points,  3 beta functions with: 
                l(1) =   0
                l(2) =   1
                l(3) =   3

     PseudoPot. # 3 for Cl read from file:
     ./Cl.pbe-mt_fhi.UPF
     MD5 check sum: 2690b95bbfe21454a1a3af22474751ef
     Pseudo is Norm-conserving, Zval =  7.0
     Generated using FHI98PP, converted with fhi2upf.x v.5.0.2
     Using radial grid of  503 points,  3 beta functions with: 
                l(1) =   0
                l(2) =   1
                l(3) =   3

     atomic species   valence    mass     pseudopotential
        C              4.00    12.01070      C( 1.00)
        H              1.00     1.00794      H( 1.00)
        Cl             7.00     1.00000     Cl( 1.00)

     Starting magnetic structure 
     atomic species   magnetization
        C            0.000
        H            0.000
        Cl           0.000

     No symmetry found


                                    s                        frac. trans.

      isym =  1     identity                                     

 cryst.   s( 1) = (     1          0          0      )
                  (     0          1          0      )
                  (     0          0          1      )

 cart.    s( 1) = (  1.0000000  0.0000000  0.0000000 )
                  (  0.0000000  1.0000000  0.0000000 )
                  (  0.0000000  0.0000000  1.0000000 )


     point group C_1 (1)    
     there are  1 classes
     the character table:

       E    
A      1.00

     the symmetry operations in each class:
     E        1

   Cartesian axes

     site n.     atom                  positions (alat units)
         1           C   tau(   1) = (   0.0000000   0.0931333   0.0000000  )
         2           C   tau(   2) = (   0.0806533   0.0465667   0.0000000  )
         3           C   tau(   3) = (   0.0806533  -0.0465667   0.0000000  )
         4           C   tau(   4) = (   0.0000000  -0.0931333   0.0000000  )
         5           C   tau(   5) = (  -0.0806533  -0.0465667   0.0000000  )
         6           C   tau(   6) = (  -0.0806533   0.0465667   0.0000000  )
         7           H   tau(   7) = (   0.0000000   0.1654000   0.0000000  )
         8           H   tau(   8) = (   0.1432400   0.0827000   0.0000000  )
         9           H   tau(   9) = (   0.1432400  -0.0827000   0.0000000  )
        10           H   tau(  10) = (   0.0000000  -0.1654000   0.0000000  )
        11           H   tau(  11) = (  -0.1432400  -0.0827000   0.0000000  )
        12           H   tau(  12) = (  -0.1432400   0.0827000   0.0000000  )
        13           Cl  tau(  13) = (   0.0403267   0.0698500   0.2000000  )

   Crystallographic axes

     site n.     atom                  positions (cryst. coord.)
         1           C   tau(   1) = (  0.0000000  0.0931333  0.0000000  )
         2           C   tau(   2) = (  0.0806533  0.0465667  0.0000000  )
         3           C   tau(   3) = (  0.0806533 -0.0465667  0.0000000  )
         4           C   tau(   4) = (  0.0000000 -0.0931333  0.0000000  )
         5           C   tau(   5) = ( -0.0806533 -0.0465667  0.0000000  )
         6           C   tau(   6) = ( -0.0806533  0.0465667  0.0000000  )
         7           H   tau(   7) = (  0.0000000  0.1654000  0.0000000  )
         8           H   tau(   8) = (  0.1432400  0.0827000  0.0000000  )
         9           H   tau(   9) = (  0.1432400 -0.0827000  0.0000000  )
        10           H   tau(  10) = (  0.0000000 -0.1654000  0.0000000  )
        11           H   tau(  11) = ( -0.1432400 -0.0827000  0.0000000  )
        12           H   tau(  12) = ( -0.1432400  0.0827000  0.0000000  )
        13           Cl  tau(  13) = (  0.0403267  0.0698500  0.2000000  )

     number of k points=     2
                       cart. coord. in units 2pi/alat
        k(    1) = (   0.0000000   0.0000000   0.0000000), wk =   1.0000000
        k(    2) = (   0.0000000   0.0000000   0.0000000), wk =   1.0000000

                       cryst. coord.
        k(    1) = (   0.0000000   0.0000000   0.0000000), wk =   1.0000000
        k(    2) = (   0.0000000   0.0000000   0.0000000), wk =   1.0000000

     Dense  grid:  2548493 G-vectors     FFT dimensions: ( 220, 220, 220)

     Largest allocated arrays     est. size (Mb)     dimensions
        Kohn-Sham Wavefunctions         0.20 Mb     (     327,   40)
        NL pseudopotentials             0.71 Mb     (     327,  143)
        Each V/rho on FFT grid          1.48 Mb     (   48400,   2)
        Each G-vector array             0.02 Mb     (    2481)
        G-vector shells                 0.01 Mb     (    1174)
     Largest temporary arrays     est. size (Mb)     dimensions
        Each subspace H/S matrix        0.00 Mb     (       1,    1)
        Each <psi_i|beta_j> matrix      0.04 Mb     (     143,   40)
        Arrays for rho mixing           5.91 Mb     (   48400,    8)
 
     Using Hirshfeld
        Amplitude [Ry a.u.] : -3.8911E-01
        Acceptor Fragment start :          13
        Acceptor Fragment end   :          13
        Donor Fragment start :           1
        Donor Fragment end   :          12
 

     Initial potential from superposition of free atoms
     Check: negative starting charge=(component1):   -0.003564
     Check: negative starting charge=(component2):   -0.003564

     starting charge   36.99968, renormalised to   37.00000

     negative rho (up, down):  3.564E-03 3.564E-03
     Starting wfc are  208 randomized atomic wfcs

     total cpu time spent up to now is       24.3 secs

     per-process dynamical memory:    54.5 Mb

     Self-consistent Calculation

     iteration #  1     ecut=   140.00 Ry     beta=0.70
     CG style diagonalization
     ethr =  1.00E-02,  avg # of iterations =  3.7

     negative rho (up, down):  9.194E-04 9.349E-04
 
     Magnetic moment per site:
     atom:    1    charge:    1.0256    magn:    0.0313    constr:    0.0000
     atom:    2    charge:    1.0255    magn:    0.0317    constr:    0.0000
     atom:    3    charge:    1.0240    magn:    0.0304    constr:    0.0000
     atom:    4    charge:    1.0235    magn:    0.0303    constr:    0.0000
     atom:    5    charge:    1.0238    magn:    0.0306    constr:    0.0000
     atom:    6    charge:    1.0239    magn:    0.0306    constr:    0.0000
     atom:    7    charge:    0.4450    magn:    0.0013    constr:    0.0000
     atom:    8    charge:    0.4447    magn:    0.0012    constr:    0.0000
     atom:    9    charge:    0.4445    magn:    0.0013    constr:    0.0000
     atom:   10    charge:    0.4445    magn:    0.0011    constr:    0.0000
     atom:   11    charge:    0.4443    magn:    0.0011    constr:    0.0000
     atom:   12    charge:    0.4444    magn:    0.0010    constr:    0.0000
     atom:   13    charge:    3.1675    magn:    0.0007    constr:    0.0000

     total cpu time spent up to now is       31.3 secs

     The total energy is the sum of the following terms:

     one-electron contribution =    -729.49445051 Ry
     hartree contribution      =     372.59087802 Ry
     xc contribution           =     -31.51477115 Ry
     ewald contribution        =     268.46058250 Ry

     total energy              =    -103.22919343 Ry
     Harris-Foulkes estimate   =    -117.36985980 Ry
     estimated scf accuracy    <      16.70635978 Ry

     total magnetization       =     1.00 Bohr mag/cell
     absolute magnetization    =     1.00 Bohr mag/cell

     iteration #  2     ecut=   140.00 Ry     beta=0.70
     CG style diagonalization
     ethr =  1.00E-02,  avg # of iterations =  9.7

     negative rho (up, down):  5.026E-04 5.357E-04
 
     Magnetic moment per site:
     atom:    1    charge:    0.8994    magn:    0.0309    constr:    0.0000
     atom:    2    charge:    0.8993    magn:    0.0313    constr:    0.0000
     atom:    3    charge:    0.8926    magn:    0.0271    constr:    0.0000
     atom:    4    charge:    0.8902    magn:    0.0262    constr:    0.0000
     atom:    5    charge:    0.8904    magn:    0.0265    constr:    0.0000
     atom:    6    charge:    0.8926    magn:    0.0271    constr:    0.0000
     atom:    7    charge:    0.4429    magn:    0.0064    constr:    0.0000
     atom:    8    charge:    0.4428    magn:    0.0059    constr:    0.0000
     atom:    9    charge:    0.4334    magn:    0.0026    constr:    0.0000
     atom:   10    charge:    0.4317    magn:    0.0016    constr:    0.0000
     atom:   11    charge:    0.4312    magn:    0.0019    constr:    0.0000
     atom:   12    charge:    0.4333    magn:    0.0023    constr:    0.0000
     atom:   13    charge:    5.4134    magn:    0.0080    constr:    0.0000

     total cpu time spent up to now is       40.8 secs

     The total energy is the sum of the following terms:

     one-electron contribution =    -567.28007596 Ry
     hartree contribution      =     347.62313252 Ry
     xc contribution           =     -30.27526124 Ry
     ewald contribution        =     268.46058250 Ry

     total energy              =     -85.79249090 Ry
     Harris-Foulkes estimate   =    -140.74562198 Ry
     estimated scf accuracy    <     202.07116007 Ry

     total magnetization       =     1.00 Bohr mag/cell
     absolute magnetization    =     1.19 Bohr mag/cell

     iteration #  3     ecut=   140.00 Ry     beta=0.70
     CG style diagonalization
     ethr =  1.00E-02,  avg # of iterations =  9.4

     negative rho (up, down):  2.380E-04 2.604E-04
 
     Magnetic moment per site:
     atom:    1    charge:    0.8765    magn:    0.0198    constr:    0.0000
     atom:    2    charge:    0.8771    magn:    0.0204    constr:    0.0000
     atom:    3    charge:    0.8743    magn:    0.0201    constr:    0.0000
     atom:    4    charge:    0.8749    magn:    0.0195    constr:    0.0000
     atom:    5    charge:    0.8764    magn:    0.0180    constr:    0.0000
     atom:    6    charge:    0.8742    magn:    0.0201    constr:    0.0000
     atom:    7    charge:    0.4643    magn:    0.0030    constr:    0.0000
     atom:    8    charge:    0.4643    magn:    0.0025    constr:    0.0000
     atom:    9    charge:    0.4602    magn:    0.0003    constr:    0.0000
     atom:   10    charge:    0.4622    magn:    0.0002    constr:    0.0000
     atom:   11    charge:    0.4621    magn:    0.0002    constr:    0.0000
     atom:   12    charge:    0.4600    magn:    0.0000    constr:    0.0000
     atom:   13    charge:    5.6243    magn:    0.3145    constr:    0.0000

     total cpu time spent up to now is       50.1 secs

     The total energy is the sum of the following terms:

     one-electron contribution =    -703.18240806 Ry
     hartree contribution      =     349.80799658 Ry
     xc contribution           =     -30.52761194 Ry
     ewald contribution        =     268.46058250 Ry

     total energy              =    -114.36718163 Ry
     Harris-Foulkes estimate   =    -114.49707790 Ry
     estimated scf accuracy    <       0.54352401 Ry

     total magnetization       =     1.00 Bohr mag/cell
     absolute magnetization    =     1.18 Bohr mag/cell

     iteration #  4     ecut=   140.00 Ry     beta=0.70
     CG style diagonalization
     ethr =  1.47E-03,  avg # of iterations =  3.9

     negative rho (up, down):  1.921E-04 1.995E-04
 
     Magnetic moment per site:
     atom:    1    charge:    0.8629    magn:    0.0132    constr:    0.0000
     atom:    2    charge:    0.8625    magn:    0.0136    constr:    0.0000
     atom:    3    charge:    0.8573    magn:    0.0131    constr:    0.0000
     atom:    4    charge:    0.8518    magn:    0.0122    constr:    0.0000
     atom:    5    charge:    0.8505    magn:    0.0115    constr:    0.0000
     atom:    6    charge:    0.8581    magn:    0.0132    constr:    0.0000
     atom:    7    charge:    0.4810    magn:    0.0013    constr:    0.0000
     atom:    8    charge:    0.4808    magn:    0.0011    constr:    0.0000
     atom:    9    charge:    0.4805    magn:    0.0005    constr:    0.0000
     atom:   10    charge:    0.4815    magn:    0.0004    constr:    0.0000
     atom:   11    charge:    0.4814    magn:    0.0004    constr:    0.0000
     atom:   12    charge:    0.4804    magn:    0.0005    constr:    0.0000
     atom:   13    charge:    5.7315    magn:    0.5415    constr:    0.0000

     total cpu time spent up to now is       54.9 secs

     The total energy is the sum of the following terms:

     one-electron contribution =    -701.58844045 Ry
     hartree contribution      =     350.09651614 Ry
     xc contribution           =     -30.59160330 Ry
     ewald contribution        =     268.46058250 Ry

     total energy              =    -114.42445592 Ry
     Harris-Foulkes estimate   =    -114.45901030 Ry
     estimated scf accuracy    <       0.22348625 Ry

     total magnetization       =     1.00 Bohr mag/cell
     absolute magnetization    =     1.08 Bohr mag/cell

     iteration #  5     ecut=   140.00 Ry     beta=0.70
     CG style diagonalization
     ethr =  6.04E-04,  avg # of iterations =  3.0

     negative rho (up, down):  3.141E-04 2.280E-04
 
     Magnetic moment per site:
     atom:    1    charge:    0.8424    magn:    0.0056    constr:    0.0000
     atom:    2    charge:    0.8424    magn:    0.0057    constr:    0.0000
     atom:    3    charge:    0.8418    magn:    0.0053    constr:    0.0000
     atom:    4    charge:    0.8432    magn:    0.0043    constr:    0.0000
     atom:    5    charge:    0.8418    magn:    0.0044    constr:    0.0000
     atom:    6    charge:    0.8414    magn:    0.0055    constr:    0.0000
     atom:    7    charge:    0.4964    magn:   -0.0001    constr:    0.0000
     atom:    8    charge:    0.4961    magn:   -0.0001    constr:    0.0000
     atom:    9    charge:    0.4971    magn:    0.0002    constr:    0.0000
     atom:   10    charge:    0.4971    magn:    0.0002    constr:    0.0000
     atom:   11    charge:    0.4970    magn:    0.0003    constr:    0.0000
     atom:   12    charge:    0.4970    magn:    0.0004    constr:    0.0000
     atom:   13    charge:    5.8412    magn:    0.7807    constr:    0.0000

     total cpu time spent up to now is       58.8 secs

     The total energy is the sum of the following terms:

     one-electron contribution =    -702.20223666 Ry
     hartree contribution      =     350.49843537 Ry
     xc contribution           =     -30.69425253 Ry
     ewald contribution        =     268.46058250 Ry

     total energy              =    -114.42023776 Ry
     Harris-Foulkes estimate   =    -114.43895241 Ry
     estimated scf accuracy    <       0.08413729 Ry

     total magnetization       =     1.00 Bohr mag/cell
     absolute magnetization    =     1.07 Bohr mag/cell

     iteration #  6     ecut=   140.00 Ry     beta=0.70
     CG style diagonalization
     ethr =  2.27E-04,  avg # of iterations =  3.4

     negative rho (up, down):  1.799E-04 1.474E-04
 
     Magnetic moment per site:
     atom:    1    charge:    0.8434    magn:    0.0045    constr:    0.0000
     atom:    2    charge:    0.8436    magn:    0.0044    constr:    0.0000
     atom:    3    charge:    0.8440    magn:    0.0014    constr:    0.0000
     atom:    4    charge:    0.8433    magn:    0.0027    constr:    0.0000
     atom:    5    charge:    0.8425    magn:    0.0024    constr:    0.0000
     atom:    6    charge:    0.8438    magn:    0.0016    constr:    0.0000
     atom:    7    charge:    0.4953    magn:    0.0000    constr:    0.0000
     atom:    8    charge:    0.4950    magn:    0.0000    constr:    0.0000
     atom:    9    charge:    0.4956    magn:    0.0000    constr:    0.0000
     atom:   10    charge:    0.4956    magn:    0.0001    constr:    0.0000
     atom:   11    charge:    0.4955    magn:    0.0001    constr:    0.0000
     atom:   12    charge:    0.4954    magn:    0.0002    constr:    0.0000
     atom:   13    charge:    5.8002    magn:    0.8466    constr:    0.0000

     total cpu time spent up to now is       63.0 secs

     The total energy is the sum of the following terms:

     one-electron contribution =    -705.56577580 Ry
     hartree contribution      =     350.35199709 Ry
     xc contribution           =     -30.66005928 Ry
     ewald contribution        =     268.46058250 Ry

     total energy              =    -114.41954379 Ry
     Harris-Foulkes estimate   =    -114.44030429 Ry
     estimated scf accuracy    <       0.40407527 Ry

     total magnetization       =     1.00 Bohr mag/cell
     absolute magnetization    =     2.56 Bohr mag/cell

     iteration #  7     ecut=   140.00 Ry     beta=0.70
     CG style diagonalization
     ethr =  2.27E-04,  avg # of iterations =  3.0

     negative rho (up, down):  1.272E-04 8.860E-05
 
     Magnetic moment per site:
     atom:    1    charge:    0.8455    magn:   -0.0001    constr:    0.0000
     atom:    2    charge:    0.8455    magn:   -0.0002    constr:    0.0000
     atom:    3    charge:    0.8416    magn:   -0.0022    constr:    0.0000
     atom:    4    charge:    0.8416    magn:   -0.0020    constr:    0.0000
     atom:    5    charge:    0.8414    magn:   -0.0021    constr:    0.0000
     atom:    6    charge:    0.8418    magn:   -0.0021    constr:    0.0000
     atom:    7    charge:    0.4980    magn:   -0.0003    constr:    0.0000
     atom:    8    charge:    0.4977    magn:   -0.0003    constr:    0.0000
     atom:    9    charge:    0.4973    magn:   -0.0001    constr:    0.0000
     atom:   10    charge:    0.4973    magn:   -0.0001    constr:    0.0000
     atom:   11    charge:    0.4971    magn:   -0.0001    constr:    0.0000
     atom:   12    charge:    0.4972    magn:    0.0000    constr:    0.0000
     atom:   13    charge:    5.8229    magn:    0.9706    constr:    0.0000

     total cpu time spent up to now is       66.9 secs

     The total energy is the sum of the following terms:

     one-electron contribution =    -703.03431738 Ry
     hartree contribution      =     350.75171657 Ry
     xc contribution           =     -30.71611915 Ry
     ewald contribution        =     268.46058250 Ry

     total energy              =    -114.43627850 Ry
     Harris-Foulkes estimate   =    -114.43666720 Ry
     estimated scf accuracy    <       0.01059891 Ry

     total magnetization       =     1.00 Bohr mag/cell
     absolute magnetization    =     1.18 Bohr mag/cell

     iteration #  8     ecut=   140.00 Ry     beta=0.70
     CG style diagonalization
     ethr =  2.86E-05,  avg # of iterations =  3.4

     negative rho (up, down):  1.675E-05 1.232E-05
 
     Magnetic moment per site:
     atom:    1    charge:    0.8454    magn:   -0.0039    constr:    0.0000
     atom:    2    charge:    0.8453    magn:   -0.0038    constr:    0.0000
     atom:    3    charge:    0.8442    magn:   -0.0049    constr:    0.0000
     atom:    4    charge:    0.8442    magn:   -0.0065    constr:    0.0000
     atom:    5    charge:    0.8437    magn:   -0.0064    constr:    0.0000
     atom:    6    charge:    0.8443    magn:   -0.0050    constr:    0.0000
     atom:    7    charge:    0.4974    magn:   -0.0001    constr:    0.0000
     atom:    8    charge:    0.4971    magn:   -0.0001    constr:    0.0000
     atom:    9    charge:    0.4959    magn:   -0.0001    constr:    0.0000
     atom:   10    charge:    0.4958    magn:   -0.0001    constr:    0.0000
     atom:   11    charge:    0.4955    magn:   -0.0001    constr:    0.0000
     atom:   12    charge:    0.4958    magn:    0.0000    constr:    0.0000
     atom:   13    charge:    5.8156    magn:    1.0688    constr:    0.0000

     total cpu time spent up to now is       71.2 secs

     The total energy is the sum of the following terms:

     one-electron contribution =    -703.26916925 Ry
     hartree contribution      =     350.80918982 Ry
     xc contribution           =     -30.72556414 Ry
     ewald contribution        =     268.46058250 Ry

     total energy              =    -114.43857302 Ry
     Harris-Foulkes estimate   =    -114.43801878 Ry
     estimated scf accuracy    <       0.00718295 Ry

     total magnetization       =     1.00 Bohr mag/cell
     absolute magnetization    =     1.52 Bohr mag/cell

     iteration #  9     ecut=   140.00 Ry     beta=0.70
     CG style diagonalization
     ethr =  1.94E-05,  avg # of iterations =  3.2

     negative rho (up, down):  3.479E-06 2.239E-06
 
     Magnetic moment per site:
     atom:    1    charge:    0.8460    magn:   -0.0055    constr:    0.0000
     atom:    2    charge:    0.8460    magn:   -0.0054    constr:    0.0000
     atom:    3    charge:    0.8440    magn:   -0.0051    constr:    0.0000
     atom:    4    charge:    0.8442    magn:   -0.0084    constr:    0.0000
     atom:    5    charge:    0.8440    magn:   -0.0081    constr:    0.0000
     atom:    6    charge:    0.8441    magn:   -0.0052    constr:    0.0000
     atom:    7    charge:    0.4976    magn:    0.0000    constr:    0.0000
     atom:    8    charge:    0.4974    magn:    0.0000    constr:    0.0000
     atom:    9    charge:    0.4959    magn:    0.0001    constr:    0.0000
     atom:   10    charge:    0.4956    magn:    0.0000    constr:    0.0000
     atom:   11    charge:    0.4953    magn:   -0.0001    constr:    0.0000
     atom:   12    charge:    0.4959    magn:    0.0001    constr:    0.0000
     atom:   13    charge:    5.8200    magn:    1.0984    constr:    0.0000

     total cpu time spent up to now is       75.3 secs

     The total energy is the sum of the following terms:

     one-electron contribution =    -703.00574877 Ry
     hartree contribution      =     350.86208372 Ry
     xc contribution           =     -30.73567326 Ry
     ewald contribution        =     268.46058250 Ry

     total energy              =    -114.44023757 Ry
     Harris-Foulkes estimate   =    -114.43964996 Ry
     estimated scf accuracy    <       0.00161564 Ry

     total magnetization       =     1.00 Bohr mag/cell
     absolute magnetization    =     1.48 Bohr mag/cell

     iteration # 10     ecut=   140.00 Ry     beta=0.70
     CG style diagonalization
     ethr =  4.37E-06,  avg # of iterations =  3.7

     negative rho (up, down):  8.272E-07 9.609E-07
 
     Magnetic moment per site:
     atom:    1    charge:    0.8463    magn:   -0.0080    constr:    0.0000
     atom:    2    charge:    0.8461    magn:   -0.0076    constr:    0.0000
     atom:    3    charge:    0.8432    magn:   -0.0044    constr:    0.0000
     atom:    4    charge:    0.8445    magn:   -0.0112    constr:    0.0000
     atom:    5    charge:    0.8441    magn:   -0.0106    constr:    0.0000
     atom:    6    charge:    0.8433    magn:   -0.0047    constr:    0.0000
     atom:    7    charge:    0.4980    magn:    0.0001    constr:    0.0000
     atom:    8    charge:    0.4978    magn:    0.0001    constr:    0.0000
     atom:    9    charge:    0.4961    magn:    0.0002    constr:    0.0000
     atom:   10    charge:    0.4959    magn:    0.0001    constr:    0.0000
     atom:   11    charge:    0.4956    magn:    0.0001    constr:    0.0000
     atom:   12    charge:    0.4961    magn:    0.0002    constr:    0.0000
     atom:   13    charge:    5.8212    magn:    1.1340    constr:    0.0000

     total cpu time spent up to now is       79.8 secs

     The total energy is the sum of the following terms:

     one-electron contribution =    -703.17425328 Ry
     hartree contribution      =     350.88769329 Ry
     xc contribution           =     -30.74164528 Ry
     ewald contribution        =     268.46058250 Ry

     total energy              =    -114.44137057 Ry
     Harris-Foulkes estimate   =    -114.44062530 Ry
     estimated scf accuracy    <       0.00305031 Ry

     total magnetization       =     1.00 Bohr mag/cell
     absolute magnetization    =     1.63 Bohr mag/cell

     iteration # 11     ecut=   140.00 Ry     beta=0.70
     CG style diagonalization
     ethr =  4.37E-06,  avg # of iterations =  3.2
 
     Magnetic moment per site:
     atom:    1    charge:    0.8460    magn:   -0.0093    constr:    0.0000
     atom:    2    charge:    0.8459    magn:   -0.0088    constr:    0.0000
     atom:    3    charge:    0.8433    magn:   -0.0032    constr:    0.0000
     atom:    4    charge:    0.8442    magn:   -0.0126    constr:    0.0000
     atom:    5    charge:    0.8440    magn:   -0.0117    constr:    0.0000
     atom:    6    charge:    0.8434    magn:   -0.0035    constr:    0.0000
     atom:    7    charge:    0.4981    magn:    0.0002    constr:    0.0000
     atom:    8    charge:    0.4979    magn:    0.0002    constr:    0.0000
     atom:    9    charge:    0.4963    magn:    0.0003    constr:    0.0000
     atom:   10    charge:    0.4959    magn:    0.0002    constr:    0.0000
     atom:   11    charge:    0.4957    magn:    0.0002    constr:    0.0000
     atom:   12    charge:    0.4962    magn:    0.0003    constr:    0.0000
     atom:   13    charge:    5.8192    magn:    1.1436    constr:    0.0000

     total cpu time spent up to now is       83.8 secs

     The total energy is the sum of the following terms:

     one-electron contribution =    -703.30788449 Ry
     hartree contribution      =     350.88003432 Ry
     xc contribution           =     -30.73988084 Ry
     ewald contribution        =     268.46058250 Ry

     total energy              =    -114.44223690 Ry
     Harris-Foulkes estimate   =    -114.44186568 Ry
     estimated scf accuracy    <       0.00666746 Ry

     total magnetization       =     1.00 Bohr mag/cell
     absolute magnetization    =     1.74 Bohr mag/cell

     iteration # 12     ecut=   140.00 Ry     beta=0.70
     CG style diagonalization
     ethr =  4.37E-06,  avg # of iterations =  3.1
 
     Magnetic moment per site:
     atom:    1    charge:    0.8463    magn:   -0.0112    constr:    0.0000
     atom:    2    charge:    0.8460    magn:   -0.0105    constr:    0.0000
     atom:    3    charge:    0.8432    magn:   -0.0014    constr:    0.0000
     atom:    4    charge:    0.8448    magn:   -0.0146    constr:    0.0000
     atom:    5    charge:    0.8443    magn:   -0.0133    constr:    0.0000
     atom:    6    charge:    0.8433    magn:   -0.0018    constr:    0.0000
     atom:    7    charge:    0.4981    magn:    0.0004    constr:    0.0000
     atom:    8    charge:    0.4979    magn:    0.0004    constr:    0.0000
     atom:    9    charge:    0.4963    magn:    0.0003    constr:    0.0000
     atom:   10    charge:    0.4959    magn:    0.0004    constr:    0.0000
     atom:   11    charge:    0.4957    magn:    0.0003    constr:    0.0000
     atom:   12    charge:    0.4963    magn:    0.0003    constr:    0.0000
     atom:   13    charge:    5.8163    magn:    1.1581    constr:    0.0000

     total cpu time spent up to now is       87.8 secs

     The total energy is the sum of the following terms:

     one-electron contribution =    -703.31938217 Ry
     hartree contribution      =     350.90999067 Ry
     xc contribution           =     -30.74203832 Ry
     ewald contribution        =     268.46058250 Ry

     total energy              =    -114.44266551 Ry
     Harris-Foulkes estimate   =    -114.44244621 Ry
     estimated scf accuracy    <       0.00602990 Ry

     total magnetization       =     1.00 Bohr mag/cell
     absolute magnetization    =     1.74 Bohr mag/cell

     iteration # 13     ecut=   140.00 Ry     beta=0.70
     CG style diagonalization
     ethr =  4.37E-06,  avg # of iterations =  3.1

     negative rho (up, down):  9.065E-10 1.057E-08
 
     Magnetic moment per site:
     atom:    1    charge:    0.8462    magn:   -0.0133    constr:    0.0000
     atom:    2    charge:    0.8459    magn:   -0.0124    constr:    0.0000
     atom:    3    charge:    0.8428    magn:   -0.0002    constr:    0.0000
     atom:    4    charge:    0.8446    magn:   -0.0169    constr:    0.0000
     atom:    5    charge:    0.8443    magn:   -0.0152    constr:    0.0000
     atom:    6    charge:    0.8429    magn:   -0.0006    constr:    0.0000
     atom:    7    charge:    0.4984    magn:    0.0005    constr:    0.0000
     atom:    8    charge:    0.4982    magn:    0.0006    constr:    0.0000
     atom:    9    charge:    0.4965    magn:    0.0004    constr:    0.0000
     atom:   10    charge:    0.4961    magn:    0.0005    constr:    0.0000
     atom:   11    charge:    0.4958    magn:    0.0005    constr:    0.0000
     atom:   12    charge:    0.4965    magn:    0.0004    constr:    0.0000
     atom:   13    charge:    5.8176    magn:    1.1802    constr:    0.0000

     total cpu time spent up to now is       91.8 secs

     The total energy is the sum of the following terms:

     one-electron contribution =    -703.23332552 Ry
     hartree contribution      =     350.92219973 Ry
     xc contribution           =     -30.74922316 Ry
     ewald contribution        =     268.46058250 Ry

     total energy              =    -114.44335827 Ry
     Harris-Foulkes estimate   =    -114.44316401 Ry
     estimated scf accuracy    <       0.00339322 Ry

     total magnetization       =     1.00 Bohr mag/cell
     absolute magnetization    =     1.71 Bohr mag/cell

     iteration # 14     ecut=   140.00 Ry     beta=0.70
     CG style diagonalization
     ethr =  4.37E-06,  avg # of iterations =  3.1

     negative rho (up, down):  2.523E-06 1.941E-06
 
     Magnetic moment per site:
     atom:    1    charge:    0.8458    magn:   -0.0107    constr:    0.0000
     atom:    2    charge:    0.8458    magn:   -0.0100    constr:    0.0000
     atom:    3    charge:    0.8429    magn:    0.0002    constr:    0.0000
     atom:    4    charge:    0.8445    magn:   -0.0136    constr:    0.0000
     atom:    5    charge:    0.8445    magn:   -0.0123    constr:    0.0000
     atom:    6    charge:    0.8430    magn:   -0.0001    constr:    0.0000
     atom:    7    charge:    0.4981    magn:    0.0003    constr:    0.0000
     atom:    8    charge:    0.4979    magn:    0.0003    constr:    0.0000
     atom:    9    charge:    0.4964    magn:    0.0001    constr:    0.0000
     atom:   10    charge:    0.4961    magn:    0.0003    constr:    0.0000
     atom:   11    charge:    0.4958    magn:    0.0003    constr:    0.0000
     atom:   12    charge:    0.4964    magn:    0.0001    constr:    0.0000
     atom:   13    charge:    5.8157    magn:    1.1321    constr:    0.0000

     total cpu time spent up to now is       95.8 secs

     The total energy is the sum of the following terms:

     one-electron contribution =    -703.39577879 Ry
     hartree contribution      =     350.89346220 Ry
     xc contribution           =     -30.73571659 Ry
     ewald contribution        =     268.46058250 Ry

     total energy              =    -114.44252012 Ry
     Harris-Foulkes estimate   =    -114.44375426 Ry
     estimated scf accuracy    <       0.00819813 Ry

     total magnetization       =     1.00 Bohr mag/cell
     absolute magnetization    =     1.81 Bohr mag/cell

     iteration # 15     ecut=   140.00 Ry     beta=0.70
     CG style diagonalization
     ethr =  4.37E-06,  avg # of iterations =  3.1

     negative rho (up, down):  7.486E-06 5.466E-06
 
     Magnetic moment per site:
     atom:    1    charge:    0.8459    magn:   -0.0105    constr:    0.0000
     atom:    2    charge:    0.8457    magn:   -0.0098    constr:    0.0000
     atom:    3    charge:    0.8431    magn:    0.0025    constr:    0.0000
     atom:    4    charge:    0.8444    magn:   -0.0128    constr:    0.0000
     atom:    5    charge:    0.8441    magn:   -0.0115    constr:    0.0000
     atom:    6    charge:    0.8432    magn:    0.0021    constr:    0.0000
     atom:    7    charge:    0.4980    magn:    0.0004    constr:    0.0000
     atom:    8    charge:    0.4978    magn:    0.0003    constr:    0.0000
     atom:    9    charge:    0.4964    magn:   -0.0002    constr:    0.0000
     atom:   10    charge:    0.4961    magn:    0.0004    constr:    0.0000
     atom:   11    charge:    0.4958    magn:    0.0003    constr:    0.0000
     atom:   12    charge:    0.4964    magn:   -0.0002    constr:    0.0000
     atom:   13    charge:    5.8143    magn:    1.1023    constr:    0.0000

     total cpu time spent up to now is       99.8 secs

     The total energy is the sum of the following terms:

     one-electron contribution =    -703.16711830 Ry
     hartree contribution      =     350.88679285 Ry
     xc contribution           =     -30.72889750 Ry
     ewald contribution        =     268.46058250 Ry

     total energy              =    -114.44301357 Ry
     Harris-Foulkes estimate   =    -114.44311031 Ry
     estimated scf accuracy    <       0.00264445 Ry

     total magnetization       =     1.00 Bohr mag/cell
     absolute magnetization    =     1.65 Bohr mag/cell

     iteration # 16     ecut=   140.00 Ry     beta=0.70
     CG style diagonalization
     ethr =  4.37E-06,  avg # of iterations =  3.1

     negative rho (up, down):  8.026E-06 5.969E-06
 
     Magnetic moment per site:
     atom:    1    charge:    0.8458    magn:   -0.0103    constr:    0.0000
     atom:    2    charge:    0.8457    magn:   -0.0096    constr:    0.0000
     atom:    3    charge:    0.8432    magn:    0.0026    constr:    0.0000
     atom:    4    charge:    0.8443    magn:   -0.0127    constr:    0.0000
     atom:    5    charge:    0.8441    magn:   -0.0113    constr:    0.0000
     atom:    6    charge:    0.8432    magn:    0.0022    constr:    0.0000
     atom:    7    charge:    0.4980    magn:    0.0004    constr:    0.0000
     atom:    8    charge:    0.4977    magn:    0.0003    constr:    0.0000
     atom:    9    charge:    0.4964    magn:   -0.0002    constr:    0.0000
     atom:   10    charge:    0.4961    magn:    0.0004    constr:    0.0000
     atom:   11    charge:    0.4958    magn:    0.0003    constr:    0.0000
     atom:   12    charge:    0.4964    magn:   -0.0002    constr:    0.0000
     atom:   13    charge:    5.8142    magn:    1.0983    constr:    0.0000

     total cpu time spent up to now is      103.8 secs

     The total energy is the sum of the following terms:

     one-electron contribution =    -703.07636449 Ry
     hartree contribution      =     350.88509367 Ry
     xc contribution           =     -30.72804117 Ry
     ewald contribution        =     268.46058250 Ry

     total energy              =    -114.44330829 Ry
     Harris-Foulkes estimate   =    -114.44325090 Ry
     estimated scf accuracy    <       0.00279234 Ry

     total magnetization       =     1.00 Bohr mag/cell
     absolute magnetization    =     1.58 Bohr mag/cell

     iteration # 17     ecut=   140.00 Ry     beta=0.70
     CG style diagonalization
     ethr =  4.37E-06,  avg # of iterations =  3.0

     negative rho (up, down):  7.461E-06 5.603E-06
 
     Magnetic moment per site:
     atom:    1    charge:    0.8458    magn:   -0.0101    constr:    0.0000
     atom:    2    charge:    0.8456    magn:   -0.0094    constr:    0.0000
     atom:    3    charge:    0.8432    magn:    0.0026    constr:    0.0000
     atom:    4    charge:    0.8443    magn:   -0.0124    constr:    0.0000
     atom:    5    charge:    0.8441    magn:   -0.0111    constr:    0.0000
     atom:    6    charge:    0.8432    magn:    0.0022    constr:    0.0000
     atom:    7    charge:    0.4980    magn:    0.0003    constr:    0.0000
     atom:    8    charge:    0.4977    magn:    0.0003    constr:    0.0000
     atom:    9    charge:    0.4964    magn:   -0.0003    constr:    0.0000
     atom:   10    charge:    0.4961    magn:    0.0003    constr:    0.0000
     atom:   11    charge:    0.4958    magn:    0.0003    constr:    0.0000
     atom:   12    charge:    0.4964    magn:   -0.0002    constr:    0.0000
     atom:   13    charge:    5.8146    magn:    1.0953    constr:    0.0000

     total cpu time spent up to now is      107.7 secs

     The total energy is the sum of the following terms:

     one-electron contribution =    -703.07368988 Ry
     hartree contribution      =     350.88231543 Ry
     xc contribution           =     -30.72734673 Ry
     ewald contribution        =     268.46058250 Ry

     total energy              =    -114.44337305 Ry
     Harris-Foulkes estimate   =    -114.44331802 Ry
     estimated scf accuracy    <       0.00283535 Ry

     total magnetization       =     1.00 Bohr mag/cell
     absolute magnetization    =     1.58 Bohr mag/cell

     iteration # 18     ecut=   140.00 Ry     beta=0.70
     CG style diagonalization
     ethr =  4.37E-06,  avg # of iterations =  3.0

     negative rho (up, down):  8.000E-06 5.772E-06
 
     Magnetic moment per site:
     atom:    1    charge:    0.8462    magn:   -0.0119    constr:    0.0000
     atom:    2    charge:    0.8458    magn:   -0.0110    constr:    0.0000
     atom:    3    charge:    0.8427    magn:    0.0037    constr:    0.0000
     atom:    4    charge:    0.8444    magn:   -0.0142    constr:    0.0000
     atom:    5    charge:    0.8439    magn:   -0.0125    constr:    0.0000
     atom:    6    charge:    0.8428    magn:    0.0032    constr:    0.0000
     atom:    7    charge:    0.4980    magn:    0.0006    constr:    0.0000
     atom:    8    charge:    0.4977    magn:    0.0005    constr:    0.0000
     atom:    9    charge:    0.4965    magn:    0.0000    constr:    0.0000
     atom:   10    charge:    0.4962    magn:    0.0006    constr:    0.0000
     atom:   11    charge:    0.4959    magn:    0.0005    constr:    0.0000
     atom:   12    charge:    0.4965    magn:    0.0000    constr:    0.0000
     atom:   13    charge:    5.8134    magn:    1.1070    constr:    0.0000

     total cpu time spent up to now is      111.6 secs

     The total energy is the sum of the following terms:

     one-electron contribution =    -703.08635658 Ry
     hartree contribution      =     350.87414275 Ry
     xc contribution           =     -30.72987872 Ry
     ewald contribution        =     268.46058250 Ry

     total energy              =    -114.44259450 Ry
     Harris-Foulkes estimate   =    -114.44338597 Ry
     estimated scf accuracy    <       0.00290002 Ry

     total magnetization       =     1.00 Bohr mag/cell
     absolute magnetization    =     1.58 Bohr mag/cell

     iteration # 19     ecut=   140.00 Ry     beta=0.70
     CG style diagonalization
     ethr =  4.37E-06,  avg # of iterations =  3.1

     negative rho (up, down):  1.857E-06 4.972E-06
 
     Magnetic moment per site:
     atom:    1    charge:    0.8453    magn:   -0.0092    constr:    0.0000
     atom:    2    charge:    0.8453    magn:   -0.0088    constr:    0.0000
     atom:    3    charge:    0.8442    magn:   -0.0038    constr:    0.0000
     atom:    4    charge:    0.8447    magn:   -0.0135    constr:    0.0000
     atom:    5    charge:    0.8446    magn:   -0.0124    constr:    0.0000
     atom:    6    charge:    0.8442    magn:   -0.0041    constr:    0.0000
     atom:    7    charge:    0.4986    magn:    0.0001    constr:    0.0000
     atom:    8    charge:    0.4983    magn:    0.0001    constr:    0.0000
     atom:    9    charge:    0.4963    magn:   -0.0004    constr:    0.0000
     atom:   10    charge:    0.4959    magn:    0.0000    constr:    0.0000
     atom:   11    charge:    0.4957    magn:    0.0000    constr:    0.0000
     atom:   12    charge:    0.4963    magn:   -0.0004    constr:    0.0000
     atom:   13    charge:    5.8084    magn:    1.1711    constr:    0.0000

     total cpu time spent up to now is      115.6 secs

     The total energy is the sum of the following terms:

     one-electron contribution =    -703.07489942 Ry
     hartree contribution      =     350.94194687 Ry
     xc contribution           =     -30.75525593 Ry
     ewald contribution        =     268.46058250 Ry

     total energy              =    -114.43808777 Ry
     Harris-Foulkes estimate   =    -114.44294767 Ry
     estimated scf accuracy    <       0.00266528 Ry

     total magnetization       =     1.00 Bohr mag/cell
     absolute magnetization    =     1.58 Bohr mag/cell

     iteration # 20     ecut=   140.00 Ry     beta=0.70
     CG style diagonalization
     ethr =  4.37E-06,  avg # of iterations =  4.0

     negative rho (up, down):  2.320E-07 1.656E-07
 
     Magnetic moment per site:
     atom:    1    charge:    0.8448    magn:   -0.0063    constr:    0.0000
     atom:    2    charge:    0.8448    magn:   -0.0061    constr:    0.0000
     atom:    3    charge:    0.8447    magn:   -0.0071    constr:    0.0000
     atom:    4    charge:    0.8435    magn:   -0.0101    constr:    0.0000
     atom:    5    charge:    0.8434    magn:   -0.0097    constr:    0.0000
     atom:    6    charge:    0.8448    magn:   -0.0073    constr:    0.0000
     atom:    7    charge:    0.4984    magn:    0.0002    constr:    0.0000
     atom:    8    charge:    0.4981    magn:    0.0002    constr:    0.0000
     atom:    9    charge:    0.4964    magn:    0.0002    constr:    0.0000
     atom:   10    charge:    0.4962    magn:    0.0002    constr:    0.0000
     atom:   11    charge:    0.4960    magn:    0.0002    constr:    0.0000
     atom:   12    charge:    0.4964    magn:    0.0002    constr:    0.0000
     atom:   13    charge:    5.8133    magn:    1.1331    constr:    0.0000

     total cpu time spent up to now is      120.3 secs

     The total energy is the sum of the following terms:

     one-electron contribution =    -703.07737931 Ry
     hartree contribution      =     350.88240491 Ry
     xc contribution           =     -30.73165275 Ry
     ewald contribution        =     268.46058250 Ry

     total energy              =    -114.44072074 Ry
     Harris-Foulkes estimate   =    -114.44587134 Ry
     estimated scf accuracy    <       0.00097139 Ry

     total magnetization       =     1.00 Bohr mag/cell
     absolute magnetization    =     1.60 Bohr mag/cell

     iteration # 21     ecut=   140.00 Ry     beta=0.70
     CG style diagonalization
     ethr =  2.63E-06,  avg # of iterations =  3.9

     negative rho (up, down):  4.816E-07 7.328E-05
 
     Magnetic moment per site:
     atom:    1    charge:    0.8435    magn:   -0.0034    constr:    0.0000
     atom:    2    charge:    0.8436    magn:   -0.0035    constr:    0.0000
     atom:    3    charge:    0.8465    magn:   -0.0100    constr:    0.0000
     atom:    4    charge:    0.8429    magn:   -0.0080    constr:    0.0000
     atom:    5    charge:    0.8430    magn:   -0.0080    constr:    0.0000
     atom:    6    charge:    0.8464    magn:   -0.0100    constr:    0.0000
     atom:    7    charge:    0.4986    magn:    0.0000    constr:    0.0000
     atom:    8    charge:    0.4983    magn:    0.0000    constr:    0.0000
     atom:    9    charge:    0.4963    magn:   -0.0003    constr:    0.0000
     atom:   10    charge:    0.4963    magn:    0.0001    constr:    0.0000
     atom:   11    charge:    0.4960    magn:    0.0000    constr:    0.0000
     atom:   12    charge:    0.4963    magn:   -0.0003    constr:    0.0000
     atom:   13    charge:    5.8109    magn:    1.1238    constr:    0.0000

     total cpu time spent up to now is      125.0 secs

     The total energy is the sum of the following terms:

     one-electron contribution =    -703.12505289 Ry
     hartree contribution      =     350.91435870 Ry
     xc contribution           =     -30.76003503 Ry
     ewald contribution        =     268.46058250 Ry

     total energy              =    -114.43424798 Ry
     Harris-Foulkes estimate   =    -114.44408126 Ry
     estimated scf accuracy    <       0.00194151 Ry

     total magnetization       =     1.00 Bohr mag/cell
     absolute magnetization    =     1.61 Bohr mag/cell

     iteration # 22     ecut=   140.00 Ry     beta=0.70
     CG style diagonalization
     ethr =  2.63E-06,  avg # of iterations =  4.2

     negative rho (up, down):  5.006E-07 4.421E-07
 
     Magnetic moment per site:
     atom:    1    charge:    0.8442    magn:   -0.0042    constr:    0.0000
     atom:    2    charge:    0.8442    magn:   -0.0042    constr:    0.0000
     atom:    3    charge:    0.8453    magn:   -0.0075    constr:    0.0000
     atom:    4    charge:    0.8434    magn:   -0.0081    constr:    0.0000
     atom:    5    charge:    0.8433    magn:   -0.0079    constr:    0.0000
     atom:    6    charge:    0.8454    magn:   -0.0075    constr:    0.0000
     atom:    7    charge:    0.4984    magn:    0.0001    constr:    0.0000
     atom:    8    charge:    0.4982    magn:    0.0001    constr:    0.0000
     atom:    9    charge:    0.4963    magn:   -0.0003    constr:    0.0000
     atom:   10    charge:    0.4962    magn:    0.0001    constr:    0.0000
     atom:   11    charge:    0.4960    magn:    0.0001    constr:    0.0000
     atom:   12    charge:    0.4963    magn:   -0.0003    constr:    0.0000
     atom:   13    charge:    5.8135    magn:    1.1027    constr:    0.0000

     total cpu time spent up to now is      129.9 secs

     The total energy is the sum of the following terms:

     one-electron contribution =    -703.10023119 Ry
     hartree contribution      =     350.88929721 Ry
     xc contribution           =     -30.74203461 Ry
     ewald contribution        =     268.46058250 Ry

     total energy              =    -114.44712881 Ry
     Harris-Foulkes estimate   =    -114.44697779 Ry
     estimated scf accuracy    <       0.00177408 Ry

     total magnetization       =     1.00 Bohr mag/cell
     absolute magnetization    =     1.57 Bohr mag/cell

     iteration # 23     ecut=   140.00 Ry     beta=0.70
     CG style diagonalization
     ethr =  2.63E-06,  avg # of iterations =  3.3

     negative rho (up, down):  7.070E-07 6.153E-07
 
     Magnetic moment per site:
     atom:    1    charge:    0.8446    magn:   -0.0073    constr:    0.0000
     atom:    2    charge:    0.8446    magn:   -0.0070    constr:    0.0000
     atom:    3    charge:    0.8447    magn:   -0.0044    constr:    0.0000
     atom:    4    charge:    0.8435    magn:   -0.0109    constr:    0.0000
     atom:    5    charge:    0.8435    magn:   -0.0102    constr:    0.0000
     atom:    6    charge:    0.8449    magn:   -0.0046    constr:    0.0000
     atom:    7    charge:    0.4985    magn:    0.0003    constr:    0.0000
     atom:    8    charge:    0.4983    magn:    0.0002    constr:    0.0000
     atom:    9    charge:    0.4964    magn:   -0.0002    constr:    0.0000
     atom:   10    charge:    0.4962    magn:    0.0003    constr:    0.0000
     atom:   11    charge:    0.4960    magn:    0.0002    constr:    0.0000
     atom:   12    charge:    0.4964    magn:   -0.0002    constr:    0.0000
     atom:   13    charge:    5.8124    magn:    1.1252    constr:    0.0000

     total cpu time spent up to now is      134.0 secs

     The total energy is the sum of the following terms:

     one-electron contribution =    -703.15805563 Ry
     hartree contribution      =     350.90034113 Ry
     xc contribution           =     -30.73973001 Ry
     ewald contribution        =     268.46058250 Ry

     total energy              =    -114.44321431 Ry
     Harris-Foulkes estimate   =    -114.44750960 Ry
     estimated scf accuracy    <       0.00100810 Ry

     total magnetization       =     1.00 Bohr mag/cell
     absolute magnetization    =     1.59 Bohr mag/cell

     iteration # 24     ecut=   140.00 Ry     beta=0.70
     CG style diagonalization
     ethr =  2.63E-06,  avg # of iterations =  3.5

     negative rho (up, down):  6.375E-07 5.376E-07
 
     Magnetic moment per site:
     atom:    1    charge:    0.8446    magn:   -0.0075    constr:    0.0000
     atom:    2    charge:    0.8447    magn:   -0.0072    constr:    0.0000
     atom:    3    charge:    0.8446    magn:   -0.0048    constr:    0.0000
     atom:    4    charge:    0.8435    magn:   -0.0113    constr:    0.0000
     atom:    5    charge:    0.8435    magn:   -0.0106    constr:    0.0000
     atom:    6    charge:    0.8449    magn:   -0.0050    constr:    0.0000
     atom:    7    charge:    0.4985    magn:    0.0003    constr:    0.0000
     atom:    8    charge:    0.4983    magn:    0.0003    constr:    0.0000
     atom:    9    charge:    0.4965    magn:   -0.0001    constr:    0.0000
     atom:   10    charge:    0.4963    magn:    0.0004    constr:    0.0000
     atom:   11    charge:    0.4960    magn:    0.0003    constr:    0.0000
     atom:   12    charge:    0.4965    magn:   -0.0001    constr:    0.0000
     atom:   13    charge:    5.8114    magn:    1.1315    constr:    0.0000

     total cpu time spent up to now is      138.3 secs

     The total energy is the sum of the following terms:

     one-electron contribution =    -703.09729963 Ry
     hartree contribution      =     350.89370975 Ry
     xc contribution           =     -30.73635234 Ry
     ewald contribution        =     268.46058250 Ry

     total energy              =    -114.44555205 Ry
     Harris-Foulkes estimate   =    -114.44601573 Ry
     estimated scf accuracy    <       0.00070893 Ry

     total magnetization       =     1.00 Bohr mag/cell
     absolute magnetization    =     1.58 Bohr mag/cell

     iteration # 25     ecut=   140.00 Ry     beta=0.70
     CG style diagonalization
     ethr =  1.92E-06,  avg # of iterations =  3.1

     negative rho (up, down):  2.976E-07 2.486E-07
 
     Magnetic moment per site:
     atom:    1    charge:    0.8446    magn:   -0.0058    constr:    0.0000
     atom:    2    charge:    0.8445    magn:   -0.0056    constr:    0.0000
     atom:    3    charge:    0.8451    magn:   -0.0079    constr:    0.0000
     atom:    4    charge:    0.8437    magn:   -0.0105    constr:    0.0000
     atom:    5    charge:    0.8435    magn:   -0.0100    constr:    0.0000
     atom:    6    charge:    0.8451    magn:   -0.0080    constr:    0.0000
     atom:    7    charge:    0.4985    magn:    0.0004    constr:    0.0000
     atom:    8    charge:    0.4982    magn:    0.0004    constr:    0.0000
     atom:    9    charge:    0.4964    magn:    0.0002    constr:    0.0000
     atom:   10    charge:    0.4962    magn:    0.0005    constr:    0.0000
     atom:   11    charge:    0.4960    magn:    0.0004    constr:    0.0000
     atom:   12    charge:    0.4964    magn:    0.0002    constr:    0.0000
     atom:   13    charge:    5.8097    magn:    1.1312    constr:    0.0000

     total cpu time spent up to now is      142.3 secs

     The total energy is the sum of the following terms:

     one-electron contribution =    -703.08122374 Ry
     hartree contribution      =     350.89653136 Ry
     xc contribution           =     -30.73493695 Ry
     ewald contribution        =     268.46058250 Ry

     total energy              =    -114.44471859 Ry
     Harris-Foulkes estimate   =    -114.44566181 Ry
     estimated scf accuracy    <       0.00090373 Ry

     total magnetization       =     1.00 Bohr mag/cell
     absolute magnetization    =     1.57 Bohr mag/cell

     iteration # 26     ecut=   140.00 Ry     beta=0.70
     CG style diagonalization
     ethr =  1.92E-06,  avg # of iterations =  3.4

     negative rho (up, down):  1.730E-07 1.492E-07
 
     Magnetic moment per site:
     atom:    1    charge:    0.8443    magn:   -0.0046    constr:    0.0000
     atom:    2    charge:    0.8442    magn:   -0.0044    constr:    0.0000
     atom:    3    charge:    0.8455    magn:   -0.0097    constr:    0.0000
     atom:    4    charge:    0.8435    magn:   -0.0098    constr:    0.0000
     atom:    5    charge:    0.8435    magn:   -0.0096    constr:    0.0000
     atom:    6    charge:    0.8456    magn:   -0.0097    constr:    0.0000
     atom:    7    charge:    0.4985    magn:    0.0004    constr:    0.0000
     atom:    8    charge:    0.4982    magn:    0.0004    constr:    0.0000
     atom:    9    charge:    0.4964    magn:    0.0002    constr:    0.0000
     atom:   10    charge:    0.4962    magn:    0.0005    constr:    0.0000
     atom:   11    charge:    0.4960    magn:    0.0004    constr:    0.0000
     atom:   12    charge:    0.4964    magn:    0.0002    constr:    0.0000
     atom:   13    charge:    5.8086    magn:    1.1298    constr:    0.0000

     total cpu time spent up to now is      146.5 secs

     The total energy is the sum of the following terms:

     one-electron contribution =    -703.07577192 Ry
     hartree contribution      =     350.89772239 Ry
     xc contribution           =     -30.74169104 Ry
     ewald contribution        =     268.46058250 Ry

     total energy              =    -114.44656362 Ry
     Harris-Foulkes estimate   =    -114.44704273 Ry
     estimated scf accuracy    <       0.00078991 Ry

     total magnetization       =     1.00 Bohr mag/cell
     absolute magnetization    =     1.58 Bohr mag/cell

     iteration # 27     ecut=   140.00 Ry     beta=0.70
     CG style diagonalization
     ethr =  1.92E-06,  avg # of iterations =  3.4

     negative rho (up, down):  6.913E-08 5.604E-08
 
     Magnetic moment per site:
     atom:    1    charge:    0.8443    magn:   -0.0046    constr:    0.0000
     atom:    2    charge:    0.8443    magn:   -0.0044    constr:    0.0000
     atom:    3    charge:    0.8456    magn:   -0.0100    constr:    0.0000
     atom:    4    charge:    0.8435    magn:   -0.0100    constr:    0.0000
     atom:    5    charge:    0.8435    magn:   -0.0098    constr:    0.0000
     atom:    6    charge:    0.8455    magn:   -0.0100    constr:    0.0000
     atom:    7    charge:    0.4984    magn:    0.0004    constr:    0.0000
     atom:    8    charge:    0.4982    magn:    0.0004    constr:    0.0000
     atom:    9    charge:    0.4964    magn:    0.0003    constr:    0.0000
     atom:   10    charge:    0.4963    magn:    0.0005    constr:    0.0000
     atom:   11    charge:    0.4960    magn:    0.0005    constr:    0.0000
     atom:   12    charge:    0.4964    magn:    0.0003    constr:    0.0000
     atom:   13    charge:    5.8079    magn:    1.1327    constr:    0.0000

     total cpu time spent up to now is      150.7 secs

     The total energy is the sum of the following terms:

     one-electron contribution =    -703.05910287 Ry
     hartree contribution      =     350.88776190 Ry
     xc contribution           =     -30.73915555 Ry
     ewald contribution        =     268.46058250 Ry

     total energy              =    -114.44797378 Ry
     Harris-Foulkes estimate   =    -114.44803289 Ry
     estimated scf accuracy    <       0.00018693 Ry

     total magnetization       =     1.00 Bohr mag/cell
     absolute magnetization    =     1.57 Bohr mag/cell

     iteration # 28     ecut=   140.00 Ry     beta=0.70
     CG style diagonalization
     ethr =  5.05E-07,  avg # of iterations =  3.4

     negative rho (up, down):  4.759E-12 3.399E-07
 
     Magnetic moment per site:
     atom:    1    charge:    0.8443    magn:   -0.0034    constr:    0.0000
     atom:    2    charge:    0.8443    magn:   -0.0033    constr:    0.0000
     atom:    3    charge:    0.8458    magn:   -0.0124    constr:    0.0000
     atom:    4    charge:    0.8435    magn:   -0.0098    constr:    0.0000
     atom:    5    charge:    0.8435    magn:   -0.0098    constr:    0.0000
     atom:    6    charge:    0.8458    magn:   -0.0123    constr:    0.0000
     atom:    7    charge:    0.4983    magn:    0.0004    constr:    0.0000
     atom:    8    charge:    0.4980    magn:    0.0003    constr:    0.0000
     atom:    9    charge:    0.4963    magn:    0.0006    constr:    0.0000
     atom:   10    charge:    0.4963    magn:    0.0005    constr:    0.0000
     atom:   11    charge:    0.4960    magn:    0.0005    constr:    0.0000
     atom:   12    charge:    0.4963    magn:    0.0005    constr:    0.0000
     atom:   13    charge:    5.8049    magn:    1.1409    constr:    0.0000

     total cpu time spent up to now is      155.0 secs

     The total energy is the sum of the following terms:

     one-electron contribution =    -703.06940404 Ry
     hartree contribution      =     350.88343885 Ry
     xc contribution           =     -30.75176626 Ry
     ewald contribution        =     268.46058250 Ry

     total energy              =    -114.44569872 Ry
     Harris-Foulkes estimate   =    -114.44818359 Ry
     estimated scf accuracy    <       0.00025258 Ry

     total magnetization       =     1.00 Bohr mag/cell
     absolute magnetization    =     1.58 Bohr mag/cell

     iteration # 29     ecut=   140.00 Ry     beta=0.70
     CG style diagonalization
     ethr =  5.05E-07,  avg # of iterations =  4.2

     negative rho (up, down):  6.039E-11 1.598E-08
 
     Magnetic moment per site:
     atom:    1    charge:    0.8444    magn:   -0.0040    constr:    0.0000
     atom:    2    charge:    0.8444    magn:   -0.0039    constr:    0.0000
     atom:    3    charge:    0.8453    magn:   -0.0108    constr:    0.0000
     atom:    4    charge:    0.8437    magn:   -0.0098    constr:    0.0000
     atom:    5    charge:    0.8438    magn:   -0.0097    constr:    0.0000
     atom:    6    charge:    0.8453    magn:   -0.0108    constr:    0.0000
     atom:    7    charge:    0.4983    magn:    0.0003    constr:    0.0000
     atom:    8    charge:    0.4980    magn:    0.0003    constr:    0.0000
     atom:    9    charge:    0.4963    magn:    0.0004    constr:    0.0000
     atom:   10    charge:    0.4962    magn:    0.0005    constr:    0.0000
     atom:   11    charge:    0.4960    magn:    0.0004    constr:    0.0000
     atom:   12    charge:    0.4963    magn:    0.0004    constr:    0.0000
     atom:   13    charge:    5.8065    magn:    1.1336    constr:    0.0000

     total cpu time spent up to now is      159.9 secs

     The total energy is the sum of the following terms:

     one-electron contribution =    -703.03405663 Ry
     hartree contribution      =     350.88603822 Ry
     xc contribution           =     -30.74544868 Ry
     ewald contribution        =     268.46058250 Ry

     total energy              =    -114.44809748 Ry
     Harris-Foulkes estimate   =    -114.44849815 Ry
     estimated scf accuracy    <       0.00019846 Ry

     total magnetization       =     1.00 Bohr mag/cell
     absolute magnetization    =     1.57 Bohr mag/cell

     iteration # 30     ecut=   140.00 Ry     beta=0.70
     CG style diagonalization
     ethr =  5.05E-07,  avg # of iterations =  3.4
 
     Magnetic moment per site:
     atom:    1    charge:    0.8446    magn:   -0.0045    constr:    0.0000
     atom:    2    charge:    0.8446    magn:   -0.0044    constr:    0.0000
     atom:    3    charge:    0.8451    magn:   -0.0101    constr:    0.0000
     atom:    4    charge:    0.8437    magn:   -0.0100    constr:    0.0000
     atom:    5    charge:    0.8437    magn:   -0.0098    constr:    0.0000
     atom:    6    charge:    0.8451    magn:   -0.0101    constr:    0.0000
     atom:    7    charge:    0.4982    magn:    0.0003    constr:    0.0000
     atom:    8    charge:    0.4980    magn:    0.0003    constr:    0.0000
     atom:    9    charge:    0.4963    magn:    0.0004    constr:    0.0000
     atom:   10    charge:    0.4963    magn:    0.0004    constr:    0.0000
     atom:   11    charge:    0.4960    magn:    0.0004    constr:    0.0000
     atom:   12    charge:    0.4963    magn:    0.0004    constr:    0.0000
     atom:   13    charge:    5.8068    magn:    1.1351    constr:    0.0000

     total cpu time spent up to now is      164.1 secs

     The total energy is the sum of the following terms:

     one-electron contribution =    -703.04283898 Ry
     hartree contribution      =     350.88081914 Ry
     xc contribution           =     -30.73859998 Ry
     ewald contribution        =     268.46058250 Ry

     total energy              =    -114.44829378 Ry
     Harris-Foulkes estimate   =    -114.44854297 Ry
     estimated scf accuracy    <       0.00003324 Ry

     total magnetization       =     1.00 Bohr mag/cell
     absolute magnetization    =     1.57 Bohr mag/cell

     iteration # 31     ecut=   140.00 Ry     beta=0.70
     CG style diagonalization
     ethr =  8.98E-08,  avg # of iterations =  4.0
 
     Magnetic moment per site:
     atom:    1    charge:    0.8446    magn:   -0.0043    constr:    0.0000
     atom:    2    charge:    0.8446    magn:   -0.0042    constr:    0.0000
     atom:    3    charge:    0.8452    magn:   -0.0104    constr:    0.0000
     atom:    4    charge:    0.8437    magn:   -0.0100    constr:    0.0000
     atom:    5    charge:    0.8437    magn:   -0.0098    constr:    0.0000
     atom:    6    charge:    0.8452    magn:   -0.0105    constr:    0.0000
     atom:    7    charge:    0.4982    magn:    0.0003    constr:    0.0000
     atom:    8    charge:    0.4980    magn:    0.0003    constr:    0.0000
     atom:    9    charge:    0.4963    magn:    0.0004    constr:    0.0000
     atom:   10    charge:    0.4963    magn:    0.0004    constr:    0.0000
     atom:   11    charge:    0.4960    magn:    0.0004    constr:    0.0000
     atom:   12    charge:    0.4963    magn:    0.0004    constr:    0.0000
     atom:   13    charge:    5.8063    magn:    1.1365    constr:    0.0000

     total cpu time spent up to now is      168.8 secs

     The total energy is the sum of the following terms:

     one-electron contribution =    -703.05671336 Ry
     hartree contribution      =     350.87936576 Ry
     xc contribution           =     -30.73973430 Ry
     ewald contribution        =     268.46058250 Ry

     total energy              =    -114.44843510 Ry
     Harris-Foulkes estimate   =    -114.44840611 Ry
     estimated scf accuracy    <       0.00022053 Ry

     total magnetization       =     1.00 Bohr mag/cell
     absolute magnetization    =     1.59 Bohr mag/cell

     iteration # 32     ecut=   140.00 Ry     beta=0.70
     CG style diagonalization
     ethr =  8.98E-08,  avg # of iterations =  3.2
 
     Magnetic moment per site:
     atom:    1    charge:    0.8446    magn:   -0.0043    constr:    0.0000
     atom:    2    charge:    0.8446    magn:   -0.0042    constr:    0.0000
     atom:    3    charge:    0.8452    magn:   -0.0106    constr:    0.0000
     atom:    4    charge:    0.8437    magn:   -0.0100    constr:    0.0000
     atom:    5    charge:    0.8437    magn:   -0.0099    constr:    0.0000
     atom:    6    charge:    0.8453    magn:   -0.0106    constr:    0.0000
     atom:    7    charge:    0.4982    magn:    0.0002    constr:    0.0000
     atom:    8    charge:    0.4979    magn:    0.0002    constr:    0.0000
     atom:    9    charge:    0.4963    magn:    0.0004    constr:    0.0000
     atom:   10    charge:    0.4963    magn:    0.0004    constr:    0.0000
     atom:   11    charge:    0.4960    magn:    0.0004    constr:    0.0000
     atom:   12    charge:    0.4963    magn:    0.0004    constr:    0.0000
     atom:   13    charge:    5.8054    magn:    1.1392    constr:    0.0000

     total cpu time spent up to now is      172.9 secs

     The total energy is the sum of the following terms:

     one-electron contribution =    -703.05038560 Ry
     hartree contribution      =     350.87440624 Ry
     xc contribution           =     -30.74136240 Ry
     ewald contribution        =     268.46058250 Ry

     total energy              =    -114.44835582 Ry
     Harris-Foulkes estimate   =    -114.44849111 Ry
     estimated scf accuracy    <       0.00014323 Ry

     total magnetization       =     1.00 Bohr mag/cell
     absolute magnetization    =     1.58 Bohr mag/cell

     iteration # 33     ecut=   140.00 Ry     beta=0.70
     CG style diagonalization
     ethr =  8.98E-08,  avg # of iterations =  3.6

     negative rho (up, down):  0.000E+00 2.472E-07
 
     Magnetic moment per site:
     atom:    1    charge:    0.8445    magn:   -0.0038    constr:    0.0000
     atom:    2    charge:    0.8445    magn:   -0.0038    constr:    0.0000
     atom:    3    charge:    0.8454    magn:   -0.0113    constr:    0.0000
     atom:    4    charge:    0.8437    magn:   -0.0099    constr:    0.0000
     atom:    5    charge:    0.8437    magn:   -0.0099    constr:    0.0000
     atom:    6    charge:    0.8454    magn:   -0.0113    constr:    0.0000
     atom:    7    charge:    0.4982    magn:    0.0002    constr:    0.0000
     atom:    8    charge:    0.4979    magn:    0.0002    constr:    0.0000
     atom:    9    charge:    0.4963    magn:    0.0005    constr:    0.0000
     atom:   10    charge:    0.4963    magn:    0.0004    constr:    0.0000
     atom:   11    charge:    0.4960    magn:    0.0004    constr:    0.0000
     atom:   12    charge:    0.4963    magn:    0.0005    constr:    0.0000
     atom:   13    charge:    5.8041    magn:    1.1403    constr:    0.0000

     total cpu time spent up to now is      177.3 secs

     The total energy is the sum of the following terms:

     one-electron contribution =    -703.04153070 Ry
     hartree contribution      =     350.87090256 Ry
     xc contribution           =     -30.74930025 Ry
     ewald contribution        =     268.46058250 Ry

     total energy              =    -114.44802310 Ry
     Harris-Foulkes estimate   =    -114.44859041 Ry
     estimated scf accuracy    <       0.00005745 Ry

     total magnetization       =     1.00 Bohr mag/cell
     absolute magnetization    =     1.58 Bohr mag/cell

     iteration # 34     ecut=   140.00 Ry     beta=0.70
     CG style diagonalization
     ethr =  8.98E-08,  avg # of iterations =  4.3
 
     Magnetic moment per site:
     atom:    1    charge:    0.8445    magn:   -0.0041    constr:    0.0000
     atom:    2    charge:    0.8445    magn:   -0.0041    constr:    0.0000
     atom:    3    charge:    0.8453    magn:   -0.0107    constr:    0.0000
     atom:    4    charge:    0.8437    magn:   -0.0099    constr:    0.0000
     atom:    5    charge:    0.8437    magn:   -0.0099    constr:    0.0000
     atom:    6    charge:    0.8453    magn:   -0.0107    constr:    0.0000
     atom:    7    charge:    0.4982    magn:    0.0002    constr:    0.0000
     atom:    8    charge:    0.4979    magn:    0.0002    constr:    0.0000
     atom:    9    charge:    0.4963    magn:    0.0004    constr:    0.0000
     atom:   10    charge:    0.4963    magn:    0.0004    constr:    0.0000
     atom:   11    charge:    0.4960    magn:    0.0004    constr:    0.0000
     atom:   12    charge:    0.4963    magn:    0.0004    constr:    0.0000
     atom:   13    charge:    5.8053    magn:    1.1374    constr:    0.0000

     total cpu time spent up to now is      182.3 secs

     The total energy is the sum of the following terms:

     one-electron contribution =    -703.02732511 Ry
     hartree contribution      =     350.87457715 Ry
     xc contribution           =     -30.74360946 Ry
     ewald contribution        =     268.46058250 Ry

     total energy              =    -114.44828291 Ry
     Harris-Foulkes estimate   =    -114.44856190 Ry
     estimated scf accuracy    <       0.00009959 Ry

     total magnetization       =     1.00 Bohr mag/cell
     absolute magnetization    =     1.57 Bohr mag/cell

     iteration # 35     ecut=   140.00 Ry     beta=0.70
     CG style diagonalization
     ethr =  8.98E-08,  avg # of iterations =  3.9
 
     Magnetic moment per site:
     atom:    1    charge:    0.8445    magn:   -0.0041    constr:    0.0000
     atom:    2    charge:    0.8445    magn:   -0.0041    constr:    0.0000
     atom:    3    charge:    0.8453    magn:   -0.0106    constr:    0.0000
     atom:    4    charge:    0.8437    magn:   -0.0099    constr:    0.0000
     atom:    5    charge:    0.8437    magn:   -0.0098    constr:    0.0000
     atom:    6    charge:    0.8453    magn:   -0.0106    constr:    0.0000
     atom:    7    charge:    0.4982    magn:    0.0002    constr:    0.0000
     atom:    8    charge:    0.4979    magn:    0.0002    constr:    0.0000
     atom:    9    charge:    0.4963    magn:    0.0004    constr:    0.0000
     atom:   10    charge:    0.4963    magn:    0.0004    constr:    0.0000
     atom:   11    charge:    0.4960    magn:    0.0004    constr:    0.0000
     atom:   12    charge:    0.4963    magn:    0.0004    constr:    0.0000
     atom:   13    charge:    5.8053    magn:    1.1370    constr:    0.0000

     total cpu time spent up to now is      186.9 secs

     The total energy is the sum of the following terms:

     one-electron contribution =    -703.03789845 Ry
     hartree contribution      =     350.87414112 Ry
     xc contribution           =     -30.74356124 Ry
     ewald contribution        =     268.46058250 Ry

     total energy              =    -114.44862741 Ry
     Harris-Foulkes estimate   =    -114.44862675 Ry
     estimated scf accuracy    <       0.00000690 Ry

     total magnetization       =     1.00 Bohr mag/cell
     absolute magnetization    =     1.58 Bohr mag/cell

     iteration # 36     ecut=   140.00 Ry     beta=0.70
     CG style diagonalization
     ethr =  1.86E-08,  avg # of iterations =  3.1
 
     Magnetic moment per site:
     atom:    1    charge:    0.8445    magn:   -0.0041    constr:    0.0000
     atom:    2    charge:    0.8445    magn:   -0.0041    constr:    0.0000
     atom:    3    charge:    0.8453    magn:   -0.0106    constr:    0.0000
     atom:    4    charge:    0.8437    magn:   -0.0099    constr:    0.0000
     atom:    5    charge:    0.8437    magn:   -0.0099    constr:    0.0000
     atom:    6    charge:    0.8453    magn:   -0.0106    constr:    0.0000
     atom:    7    charge:    0.4982    magn:    0.0002    constr:    0.0000
     atom:    8    charge:    0.4979    magn:    0.0002    constr:    0.0000
     atom:    9    charge:    0.4963    magn:    0.0004    constr:    0.0000
     atom:   10    charge:    0.4963    magn:    0.0004    constr:    0.0000
     atom:   11    charge:    0.4960    magn:    0.0004    constr:    0.0000
     atom:   12    charge:    0.4963    magn:    0.0004    constr:    0.0000
     atom:   13    charge:    5.8051    magn:    1.1372    constr:    0.0000

     total cpu time spent up to now is      190.8 secs

     The total energy is the sum of the following terms:

     one-electron contribution =    -703.03916231 Ry
     hartree contribution      =     350.87272075 Ry
     xc contribution           =     -30.74419690 Ry
     ewald contribution        =     268.46058250 Ry

     total energy              =    -114.44861525 Ry
     Harris-Foulkes estimate   =    -114.44862779 Ry
     estimated scf accuracy    <       0.00000572 Ry

     total magnetization       =     1.00 Bohr mag/cell
     absolute magnetization    =     1.58 Bohr mag/cell

     iteration # 37     ecut=   140.00 Ry     beta=0.70
     CG style diagonalization
     ethr =  1.55E-08,  avg # of iterations =  3.4
 
     Magnetic moment per site:
     atom:    1    charge:    0.8445    magn:   -0.0041    constr:    0.0000
     atom:    2    charge:    0.8445    magn:   -0.0041    constr:    0.0000
     atom:    3    charge:    0.8453    magn:   -0.0106    constr:    0.0000
     atom:    4    charge:    0.8437    magn:   -0.0099    constr:    0.0000
     atom:    5    charge:    0.8437    magn:   -0.0099    constr:    0.0000
     atom:    6    charge:    0.8453    magn:   -0.0106    constr:    0.0000
     atom:    7    charge:    0.4982    magn:    0.0002    constr:    0.0000
     atom:    8    charge:    0.4979    magn:    0.0002    constr:    0.0000
     atom:    9    charge:    0.4963    magn:    0.0004    constr:    0.0000
     atom:   10    charge:    0.4963    magn:    0.0004    constr:    0.0000
     atom:   11    charge:    0.4960    magn:    0.0004    constr:    0.0000
     atom:   12    charge:    0.4963    magn:    0.0004    constr:    0.0000
     atom:   13    charge:    5.8050    magn:    1.1373    constr:    0.0000

     total cpu time spent up to now is      195.0 secs

     The total energy is the sum of the following terms:

     one-electron contribution =    -703.03727777 Ry
     hartree contribution      =     350.87180983 Ry
     xc contribution           =     -30.74449680 Ry
     ewald contribution        =     268.46058250 Ry

     total energy              =    -114.44863118 Ry
     Harris-Foulkes estimate   =    -114.44863423 Ry
     estimated scf accuracy    <       0.00000050 Ry

     total magnetization       =     1.00 Bohr mag/cell
     absolute magnetization    =     1.58 Bohr mag/cell

     iteration # 38     ecut=   140.00 Ry     beta=0.70
     CG style diagonalization
     ethr =  1.34E-09,  avg # of iterations =  4.1
 
     Magnetic moment per site:
     atom:    1    charge:    0.8445    magn:   -0.0041    constr:    0.0000
     atom:    2    charge:    0.8445    magn:   -0.0041    constr:    0.0000
     atom:    3    charge:    0.8453    magn:   -0.0106    constr:    0.0000
     atom:    4    charge:    0.8437    magn:   -0.0099    constr:    0.0000
     atom:    5    charge:    0.8437    magn:   -0.0099    constr:    0.0000
     atom:    6    charge:    0.8453    magn:   -0.0106    constr:    0.0000
     atom:    7    charge:    0.4982    magn:    0.0002    constr:    0.0000
     atom:    8    charge:    0.4979    magn:    0.0002    constr:    0.0000
     atom:    9    charge:    0.4963    magn:    0.0004    constr:    0.0000
     atom:   10    charge:    0.4963    magn:    0.0004    constr:    0.0000
     atom:   11    charge:    0.4960    magn:    0.0004    constr:    0.0000
     atom:   12    charge:    0.4963    magn:    0.0004    constr:    0.0000
     atom:   13    charge:    5.8050    magn:    1.1373    constr:    0.0000

     total cpu time spent up to now is      199.8 secs

     The total energy is the sum of the following terms:

     one-electron contribution =    -703.03700006 Ry
     hartree contribution      =     350.87196680 Ry
     xc contribution           =     -30.74448436 Ry
     ewald contribution        =     268.46058250 Ry

     total energy              =    -114.44863500 Ry
     Harris-Foulkes estimate   =    -114.44863501 Ry
     estimated scf accuracy    <       0.00000001 Ry

     total magnetization       =     1.00 Bohr mag/cell
     absolute magnetization    =     1.58 Bohr mag/cell

     iteration # 39     ecut=   140.00 Ry     beta=0.70
     CG style diagonalization
     ethr =  3.35E-11,  avg # of iterations =  5.1
 
     Magnetic moment per site:
     atom:    1    charge:    0.8445    magn:   -0.0041    constr:    0.0000
     atom:    2    charge:    0.8445    magn:   -0.0041    constr:    0.0000
     atom:    3    charge:    0.8453    magn:   -0.0105    constr:    0.0000
     atom:    4    charge:    0.8437    magn:   -0.0099    constr:    0.0000
     atom:    5    charge:    0.8437    magn:   -0.0099    constr:    0.0000
[...]
     atom:    4    charge:    0.8437    magn:   -0.0099    constr:    0.0000
     atom:    5    charge:    0.8437    magn:   -0.0099    constr:    0.0000
     atom:    6    charge:    0.8453    magn:   -0.0105    constr:    0.0000
     atom:    7    charge:    0.4982    magn:    0.0002    constr:    0.0000
     atom:    8    charge:    0.4979    magn:    0.0002    constr:    0.0000
     atom:    9    charge:    0.4963    magn:    0.0004    constr:    0.0000
     atom:   10    charge:    0.4963    magn:    0.0004    constr:    0.0000
     atom:   11    charge:    0.4960    magn:    0.0004    constr:    0.0000
     atom:   12    charge:    0.4963    magn:    0.0004    constr:    0.0000
     atom:   13    charge:    5.8049    magn:    1.1372    constr:    0.0000

     total cpu time spent up to now is      427.4 secs

     The total energy is the sum of the following terms:

     one-electron contribution =    -703.03659906 Ry
     hartree contribution      =     350.87175475 Ry
     xc contribution           =     -30.74446166 Ry
     ewald contribution        =     268.46058250 Ry

     total energy              =    -114.44868246 Ry
     Harris-Foulkes estimate   =    -114.44868246 Ry
     estimated scf accuracy    <          4.2E-10 Ry

     total magnetization       =     1.00 Bohr mag/cell
     absolute magnetization    =     1.58 Bohr mag/cell

     iteration # 11     ecut=   140.00 Ry     beta=0.70
     CG style diagonalization
     ethr =  1.13E-12,  avg # of iterations =  3.1
 
     Magnetic moment per site:
     atom:    1    charge:    0.8445    magn:   -0.0041    constr:    0.0000
     atom:    2    charge:    0.8445    magn:   -0.0041    constr:    0.0000
     atom:    3    charge:    0.8453    magn:   -0.0105    constr:    0.0000
     atom:    4    charge:    0.8437    magn:   -0.0099    constr:    0.0000
     atom:    5    charge:    0.8437    magn:   -0.0099    constr:    0.0000
     atom:    6    charge:    0.8453    magn:   -0.0105    constr:    0.0000
     atom:    7    charge:    0.4982    magn:    0.0002    constr:    0.0000
     atom:    8    charge:    0.4979    magn:    0.0002    constr:    0.0000
     atom:    9    charge:    0.4963    magn:    0.0004    constr:    0.0000
     atom:   10    charge:    0.4963    magn:    0.0004    constr:    0.0000
     atom:   11    charge:    0.4960    magn:    0.0004    constr:    0.0000
     atom:   12    charge:    0.4963    magn:    0.0004    constr:    0.0000
     atom:   13    charge:    5.8049    magn:    1.1372    constr:    0.0000

     total cpu time spent up to now is      431.3 secs

     The total energy is the sum of the following terms:

     one-electron contribution =    -703.03660435 Ry
     hartree contribution      =     350.87176089 Ry
     xc contribution           =     -30.74446232 Ry
     ewald contribution        =     268.46058250 Ry

     total energy              =    -114.44868246 Ry
     Harris-Foulkes estimate   =    -114.44868246 Ry
     estimated scf accuracy    <          4.3E-11 Ry

     total magnetization       =     1.00 Bohr mag/cell
     absolute magnetization    =     1.58 Bohr mag/cell

     iteration # 12     ecut=   140.00 Ry     beta=0.70
     CG style diagonalization
     ethr =  1.16E-13,  avg # of iterations =  4.0
 
     Magnetic moment per site:
     atom:    1    charge:    0.8445    magn:   -0.0041    constr:    0.0000
     atom:    2    charge:    0.8445    magn:   -0.0041    constr:    0.0000
     atom:    3    charge:    0.8453    magn:   -0.0105    constr:    0.0000
     atom:    4    charge:    0.8437    magn:   -0.0099    constr:    0.0000
     atom:    5    charge:    0.8437    magn:   -0.0099    constr:    0.0000
     atom:    6    charge:    0.8453    magn:   -0.0105    constr:    0.0000
     atom:    7    charge:    0.4982    magn:    0.0002    constr:    0.0000
     atom:    8    charge:    0.4979    magn:    0.0002    constr:    0.0000
     atom:    9    charge:    0.4963    magn:    0.0004    constr:    0.0000
     atom:   10    charge:    0.4963    magn:    0.0004    constr:    0.0000
     atom:   11    charge:    0.4960    magn:    0.0004    constr:    0.0000
     atom:   12    charge:    0.4963    magn:    0.0004    constr:    0.0000
     atom:   13    charge:    5.8049    magn:    1.1372    constr:    0.0000

     total cpu time spent up to now is      436.0 secs

     The total energy is the sum of the following terms:

     one-electron contribution =    -703.03661829 Ry
     hartree contribution      =     350.87176620 Ry
     xc contribution           =     -30.74446252 Ry
     ewald contribution        =     268.46058250 Ry

     total energy              =    -114.44868246 Ry
     Harris-Foulkes estimate   =    -114.44868246 Ry
     estimated scf accuracy    <          4.2E-11 Ry

     total magnetization       =     1.00 Bohr mag/cell
     absolute magnetization    =     1.58 Bohr mag/cell

     iteration # 13     ecut=   140.00 Ry     beta=0.70
     CG style diagonalization
     ethr =  1.14E-13,  avg # of iterations =  3.6
 
     Magnetic moment per site:
     atom:    1    charge:    0.8445    magn:   -0.0041    constr:    0.0000
     atom:    2    charge:    0.8445    magn:   -0.0041    constr:    0.0000
     atom:    3    charge:    0.8453    magn:   -0.0105    constr:    0.0000
     atom:    4    charge:    0.8437    magn:   -0.0099    constr:    0.0000
     atom:    5    charge:    0.8437    magn:   -0.0099    constr:    0.0000
     atom:    6    charge:    0.8453    magn:   -0.0105    constr:    0.0000
     atom:    7    charge:    0.4982    magn:    0.0002    constr:    0.0000
     atom:    8    charge:    0.4979    magn:    0.0002    constr:    0.0000
     atom:    9    charge:    0.4963    magn:    0.0004    constr:    0.0000
     atom:   10    charge:    0.4963    magn:    0.0004    constr:    0.0000
     atom:   11    charge:    0.4960    magn:    0.0004    constr:    0.0000
     atom:   12    charge:    0.4963    magn:    0.0004    constr:    0.0000
     atom:   13    charge:    5.8049    magn:    1.1372    constr:    0.0000

     total cpu time spent up to now is      440.3 secs

     The total energy is the sum of the following terms:

     one-electron contribution =    -703.03658483 Ry
     hartree contribution      =     350.87176866 Ry
     xc contribution           =     -30.74446274 Ry
     ewald contribution        =     268.46058250 Ry

     total energy              =    -114.44868246 Ry
     Harris-Foulkes estimate   =    -114.44868246 Ry
     estimated scf accuracy    <          7.2E-12 Ry

     total magnetization       =     1.00 Bohr mag/cell
     absolute magnetization    =     1.58 Bohr mag/cell

     iteration # 14     ecut=   140.00 Ry     beta=0.70
     CG style diagonalization
     ethr =  1.00E-13,  avg # of iterations =  3.5
 
     Magnetic moment per site:
     atom:    1    charge:    0.8445    magn:   -0.0041    constr:    0.0000
     atom:    2    charge:    0.8445    magn:   -0.0041    constr:    0.0000
     atom:    3    charge:    0.8453    magn:   -0.0105    constr:    0.0000
     atom:    4    charge:    0.8437    magn:   -0.0099    constr:    0.0000
     atom:    5    charge:    0.8437    magn:   -0.0099    constr:    0.0000
     atom:    6    charge:    0.8453    magn:   -0.0105    constr:    0.0000
     atom:    7    charge:    0.4982    magn:    0.0002    constr:    0.0000
     atom:    8    charge:    0.4979    magn:    0.0002    constr:    0.0000
     atom:    9    charge:    0.4963    magn:    0.0004    constr:    0.0000
     atom:   10    charge:    0.4963    magn:    0.0004    constr:    0.0000
     atom:   11    charge:    0.4960    magn:    0.0004    constr:    0.0000
     atom:   12    charge:    0.4963    magn:    0.0004    constr:    0.0000
     atom:   13    charge:    5.8049    magn:    1.1372    constr:    0.0000

     total cpu time spent up to now is      444.6 secs

     The total energy is the sum of the following terms:

     one-electron contribution =    -703.03657382 Ry
     hartree contribution      =     350.87176595 Ry
     xc contribution           =     -30.74446264 Ry
     ewald contribution        =     268.46058250 Ry

     total energy              =    -114.44868246 Ry
     Harris-Foulkes estimate   =    -114.44868246 Ry
     estimated scf accuracy    <          4.3E-12 Ry

     total magnetization       =     1.00 Bohr mag/cell
     absolute magnetization    =     1.58 Bohr mag/cell

     iteration # 15     ecut=   140.00 Ry     beta=0.70
     CG style diagonalization
     ethr =  1.00E-13,  avg # of iterations =  3.6
 
     Magnetic moment per site:
     atom:    1    charge:    0.8445    magn:   -0.0041    constr:    0.0000
     atom:    2    charge:    0.8445    magn:   -0.0041    constr:    0.0000
     atom:    3    charge:    0.8453    magn:   -0.0105    constr:    0.0000
     atom:    4    charge:    0.8437    magn:   -0.0099    constr:    0.0000
     atom:    5    charge:    0.8437    magn:   -0.0099    constr:    0.0000
     atom:    6    charge:    0.8453    magn:   -0.0105    constr:    0.0000
     atom:    7    charge:    0.4982    magn:    0.0002    constr:    0.0000
     atom:    8    charge:    0.4979    magn:    0.0002    constr:    0.0000
     atom:    9    charge:    0.4963    magn:    0.0004    constr:    0.0000
     atom:   10    charge:    0.4963    magn:    0.0004    constr:    0.0000
     atom:   11    charge:    0.4960    magn:    0.0004    constr:    0.0000
     atom:   12    charge:    0.4963    magn:    0.0004    constr:    0.0000
     atom:   13    charge:    5.8049    magn:    1.1372    constr:    0.0000

     total cpu time spent up to now is      449.0 secs

     The total energy is the sum of the following terms:

     one-electron contribution =    -703.03657039 Ry
     hartree contribution      =     350.87176429 Ry
     xc contribution           =     -30.74446264 Ry
     ewald contribution        =     268.46058250 Ry

     total energy              =    -114.44868246 Ry
     Harris-Foulkes estimate   =    -114.44868246 Ry
     estimated scf accuracy    <          2.4E-12 Ry

     total magnetization       =     1.00 Bohr mag/cell
     absolute magnetization    =     1.58 Bohr mag/cell

     iteration # 16     ecut=   140.00 Ry     beta=0.70
     CG style diagonalization
     ethr =  1.00E-13,  avg # of iterations =  3.5
 
     Magnetic moment per site:
     atom:    1    charge:    0.8445    magn:   -0.0041    constr:    0.0000
     atom:    2    charge:    0.8445    magn:   -0.0041    constr:    0.0000
     atom:    3    charge:    0.8453    magn:   -0.0105    constr:    0.0000
     atom:    4    charge:    0.8437    magn:   -0.0099    constr:    0.0000
     atom:    5    charge:    0.8437    magn:   -0.0099    constr:    0.0000
     atom:    6    charge:    0.8453    magn:   -0.0105    constr:    0.0000
     atom:    7    charge:    0.4982    magn:    0.0002    constr:    0.0000
     atom:    8    charge:    0.4979    magn:    0.0002    constr:    0.0000
     atom:    9    charge:    0.4963    magn:    0.0004    constr:    0.0000
     atom:   10    charge:    0.4963    magn:    0.0004    constr:    0.0000
     atom:   11    charge:    0.4960    magn:    0.0004    constr:    0.0000
     atom:   12    charge:    0.4963    magn:    0.0004    constr:    0.0000
     atom:   13    charge:    5.8049    magn:    1.1372    constr:    0.0000

     total cpu time spent up to now is      453.2 secs

     The total energy is the sum of the following terms:

     one-electron contribution =    -703.03656784 Ry
     hartree contribution      =     350.87176095 Ry
     xc contribution           =     -30.74446275 Ry
     ewald contribution        =     268.46058250 Ry

     total energy              =    -114.44868246 Ry
     Harris-Foulkes estimate   =    -114.44868246 Ry
     estimated scf accuracy    <          1.3E-12 Ry

     total magnetization       =     1.00 Bohr mag/cell
     absolute magnetization    =     1.58 Bohr mag/cell

     iteration # 17     ecut=   140.00 Ry     beta=0.70
     CG style diagonalization
     ethr =  1.00E-13,  avg # of iterations =  3.6
 
     Magnetic moment per site:
     atom:    1    charge:    0.8445    magn:   -0.0041    constr:    0.0000
     atom:    2    charge:    0.8445    magn:   -0.0041    constr:    0.0000
     atom:    3    charge:    0.8453    magn:   -0.0105    constr:    0.0000
     atom:    4    charge:    0.8437    magn:   -0.0099    constr:    0.0000
     atom:    5    charge:    0.8437    magn:   -0.0099    constr:    0.0000
     atom:    6    charge:    0.8453    magn:   -0.0105    constr:    0.0000
     atom:    7    charge:    0.4982    magn:    0.0002    constr:    0.0000
     atom:    8    charge:    0.4979    magn:    0.0002    constr:    0.0000
     atom:    9    charge:    0.4963    magn:    0.0004    constr:    0.0000
     atom:   10    charge:    0.4963    magn:    0.0004    constr:    0.0000
     atom:   11    charge:    0.4960    magn:    0.0004    constr:    0.0000
     atom:   12    charge:    0.4963    magn:    0.0004    constr:    0.0000
     atom:   13    charge:    5.8049    magn:    1.1372    constr:    0.0000

     total cpu time spent up to now is      457.6 secs

     End of self-consistent calculation

 ------ SPIN UP ------------


          k = 0.0000 0.0000 0.0000 (318742 PWs)   bands (ev):

   -25.3105 -22.5718 -22.5246 -19.5547 -18.9962 -18.9893 -17.1618 -15.4929
   -15.0417 -14.5071 -14.4711 -13.2162 -12.4913 -12.4903 -10.5394 -10.4824
    -8.0402  -6.7226  -6.7057  -5.3982  -5.3593  -4.6319  -3.9472  -3.9407
    -3.2935  -3.2851  -3.0300  -2.3222  -2.2185  -2.0524  -2.0368  -1.7623
    -1.7154  -0.7467  -0.7054  -0.6319  -0.6076  -0.3415  -0.2935  -0.1530

     occupation numbers 
     1.0000   1.0000   1.0000   1.0000   1.0000   1.0000   1.0000   1.0000
     1.0000   1.0000   1.0000   1.0000   1.0000   1.0000   1.0000   1.0000
     1.0000   1.0000   1.0000   0.0000   0.0000   0.0000   0.0000   0.0000
     0.0000   0.0000   0.0000   0.0000   0.0000   0.0000   0.0000   0.0000
     0.0000   0.0000   0.0000   0.0000   0.0000   0.0000   0.0000   0.0000

 ------ SPIN DOWN ----------


          k = 0.0000 0.0000 0.0000 (318742 PWs)   bands (ev):

   -25.3523 -22.6157 -22.5807 -19.0383 -19.0371 -17.9911 -17.1773 -15.5293
   -15.0610 -14.5176 -14.4851 -13.3236 -12.5070 -12.5043 -10.6538 -10.6316
    -6.1138  -6.0906  -5.4667  -5.4646  -5.3148  -4.6493  -3.9703  -3.9546
    -3.3193  -3.3094  -3.0606  -2.3245  -2.2453  -2.0928  -2.0729  -1.8613
    -1.7929  -0.7802  -0.7431  -0.6528  -0.6293  -0.3889  -0.3062  -0.1722

     occupation numbers 
     1.0000   1.0000   1.0000   1.0000   1.0000   1.0000   1.0000   1.0000
     1.0000   1.0000   1.0000   1.0000   1.0000   1.0000   1.0000   1.0000
     1.0000   1.0000   0.0000   0.0000   0.0000   0.0000   0.0000   0.0000
     0.0000   0.0000   0.0000   0.0000   0.0000   0.0000   0.0000   0.0000
     0.0000   0.0000   0.0000   0.0000   0.0000   0.0000   0.0000   0.0000

     highest occupied, lowest unoccupied level (ev):    -6.0906   -5.4667

     The total energy is the sum of the following terms:

     one-electron contribution =    -703.03656387 Ry
     hartree contribution      =     350.87176191 Ry
     xc contribution           =     -30.74446300 Ry
     ewald contribution        =     268.46058250 Ry

!    total energy              =    -114.44868246 Ry
     Harris-Foulkes estimate   =    -114.44868246 Ry
     estimated scf accuracy    <          2.6E-13 Ry

     The total energy is the sum of the following terms:

     one-electron contribution =    -703.03656387 Ry
     hartree contribution      =     350.87176191 Ry
     xc contribution           =     -30.74446300 Ry
     ewald contribution        =     268.46058250 Ry

     total magnetization       =     1.00 Bohr mag/cell
     absolute magnetization    =     1.58 Bohr mag/cell

     convergence has been achieved in  17 iterations
 
     Using Hirshfeld
        Amplitude [Ry a.u.] : -3.8911E-01
        Acceptor Fragment start :          13
        Acceptor Fragment end   :          13
        Donor Fragment start :           1
        Donor Fragment end   :          12
 
 
     Using Hirshfeld
        Amplitude [Ry a.u.] : -3.8911E-01
        Acceptor Fragment start :          13
        Acceptor Fragment end   :          13
        Donor Fragment start :           1
        Donor Fragment end   :          12
 
     E field correction              :  0.9338585900304164E+01 Ry    
 
     Donor charge                    :     -0.3487237796768667 e     
     Acceptor charge                 :      0.6512756221221707 e     
     Difference of charges           :     -0.9999994017990446 e     

     Writing output data file right.save
 
     init_run     :     22.45s CPU     22.45s WALL (       1 calls)
     electrons    :    423.96s CPU    423.96s WALL (       3 calls)
     update_pot   :      1.64s CPU      1.64s WALL (       2 calls)

     Called by init_run:
     wfcinit      :      5.63s CPU      5.63s WALL (       1 calls)
     potinit      :      1.36s CPU      1.36s WALL (       1 calls)

     Called by electrons:
     c_bands      :    278.28s CPU    278.28s WALL (      83 calls)
     sum_band     :     21.57s CPU     21.57s WALL (      83 calls)
     v_of_rho     :     67.10s CPU     67.10s WALL (      86 calls)
     v_h          :      0.73s CPU      0.73s WALL (      86 calls)
     v_xc         :     66.37s CPU     66.37s WALL (      86 calls)
     mix_rho      :      2.31s CPU      2.31s WALL (      83 calls)

     Called by c_bands:
     init_us_2    :      0.86s CPU      0.86s WALL (     334 calls)
     rcgdiagg     :    222.80s CPU    222.80s WALL (     170 calls)
     wfcrot       :     54.23s CPU     54.23s WALL (     166 calls)

     Called by sum_band:

     Called by *cgdiagg:
     h_psi        :    234.61s CPU    234.61s WALL (   21789 calls)
     rdiaghg      :     11.75s CPU     11.75s WALL (     166 calls)
     rdiaghg:chol :      0.92s CPU      0.92s WALL (     166 calls)
     rdiaghg:inve :      0.16s CPU      0.16s WALL (     166 calls)
     rdiaghg:para :      0.89s CPU      0.89s WALL (     332 calls)

     Called by h_psi:
     h_psi:vloc   :    207.26s CPU    207.27s WALL (   21789 calls)
     h_psi:vnl    :     26.98s CPU     26.98s WALL (   21789 calls)
     add_vuspsi   :     18.58s CPU     18.60s WALL (   21789 calls)

     General routines
     calbec       :     12.38s CPU     12.43s WALL (   43412 calls)
     fft          :     24.09s CPU     24.09s WALL (    3668 calls)
     fftw         :    199.02s CPU    199.04s WALL (   53542 calls)
 
     Parallel routines
     fft_scatter  :     91.60s CPU     91.61s WALL (   57210 calls)
 
     PWSCF        :  8m20.02s CPU     8m20.02s WALL

 
   This run was terminated on:  16:36: 5  24Aug2015            

=------------------------------------------------------------------------------=
   JOB DONE.
=------------------------------------------------------------------------------=
2015-08-24 16:36:23.285 (INFO ) [0xfff93c5c410] CET-22440-33771-128:1297611:ibm.runjob.client.Job: exited with status 0
2015-08-24 16:36:23.285 (WARN ) [0xfff93c5c410] CET-22440-33771-128:1297611:ibm.runjob.client.Job: 10 INFO RAS events
2015-08-24 16:36:23.285 (WARN ) [0xfff93c5c410] CET-22440-33771-128:1297611:ibm.runjob.client.Job: most recent RAS event text: DDR Correctable Error Summary : count=11 MCFIR error status:  [MEMORY_CE] This bit is set when a memory CE is detected on a non-maintenance memory read op;
2015-08-24 16:36:23.285 (WARN ) [0xfff93c5c410] CET-22440-33771-128:1297611:ibm.runjob.client.Job: with severity INFO
2015-08-24 16:36:23.286 (INFO ) [0xfff93c5c410] tatu.runjob.client: task exited with status 0
2015-08-24 16:36:23.286 (INFO ) [0xfffa6ca34e0] 26073:tatu.runjob.monitor: monitor terminating
2015-08-24 16:36:23.290 (INFO ) [0xfff93c5c410] tatu.runjob.client: monitor completed
