2015-08-22 19:15:09.448 (INFO ) [0xfffa1f9c410] ibm.runjob.AbstractOptions: using properties file /bgsys/local/etc/bg.properties
2015-08-22 19:15:09.454 (INFO ) [0xfffa1f9c410] ibm.runjob.AbstractOptions: max open file descriptors: 65536
2015-08-22 19:15:09.454 (INFO ) [0xfffa1f9c410] ibm.runjob.AbstractOptions: core file limit: 18446744073709551615
2015-08-22 19:15:09.455 (INFO ) [0xfffa1f9c410] 39286:tatu.runjob.client: scheduler job id is 567061
2015-08-22 19:15:09.461 (INFO ) [0xfff87c234e0] 39286:tatu.runjob.monitor: monitor started
2015-08-22 19:15:13.272 (INFO ) [0xfff87c234e0] 39286:tatu.runjob.monitor: task record 1236751 created
2015-08-22 19:15:13.273 (INFO ) [0xfffa1f9c410] CET-00440-11771-128:39286:ibm.runjob.client.options.Parser: set local socket to runjob_mux from properties file
2015-08-22 19:15:16.141 (INFO ) [0xfffa1f9c410] CET-00440-11771-128:1295525:ibm.runjob.client.Job: job 1295525 started

     Program PWSCF v.5.1.1 starts on 22Aug2015 at 19:15:16 

     This program is part of the open-source Quantum ESPRESSO suite
     for quantum simulation of materials; please cite
         "P. Giannozzi et al., J. Phys.:Condens. Matter 21 395502 (2009);
          URL http://www.quantum-espresso.org", 
     in publications or presentations arising from this work. More details at
     http://www.quantum-espresso.org/quote

     Parallel version (MPI & OpenMP), running on    1024 processor cores
     Number of MPI processes:              1024
     Threads/MPI process:                     1
     R & G space division:  proc/nbgrp/npool/nimage =    1024
     Waiting for input...
     Reading input from standard input

     Current dimensions of program PWSCF are:
     Max number of different atomic species (ntypx) = 10
     Max number of k-points (npk) =  40000
     Max angular momentum in pseudopotentials (lmaxx) =  3
               file C.pbe-mt_fhi.UPF: wavefunction(s)  4f renormalized
               file H.pbe-mt_fhi.UPF: wavefunction(s)  2p 4f renormalized
               file Cl.pbe-mt_fhi.UPF: wavefunction(s)  4f renormalized

     gamma-point specific algorithms are used
     Message from routine setup:
     the system is metallic, specify occupations

     Subspace diagonalization in iterative solution of the eigenvalue problem:
     scalapack distributed-memory algorithm (size of sub-group: 22* 22 procs)

 
     Parallelization info
     --------------------
     sticks:   dense  smooth     PW     G-vecs:    dense   smooth      PW
     Min          24      24      5                 3084     3084     370
     Max          26      26      8                 3158     3158     410
     Sum       26309   26309   6573              3205131  3205131  400871
     Tot       13155   13155   3287
 
     Generating pointlists ...
     new r_m :   0.0263 (alat units)  0.8450 (a.u.) for type    1
     new r_m :   0.0263 (alat units)  0.8450 (a.u.) for type    2
     new r_m :   0.0747 (alat units)  2.4011 (a.u.) for type    3
2015-08-22 19:15:22.328 (INFO ) [0xfff87c234e0] 39286:tatu.runjob.monitor: tracklib completed


     bravais-lattice index     =            1
     lattice parameter (alat)  =      32.1253  a.u.
     unit-cell volume          =   33154.5678 (a.u.)^3
     number of atoms/cell      =           13
     number of atomic types    =            3
     number of electrons       =        37.00 (up:  19.00, down:  18.00)
     number of Kohn-Sham states=           40
     kinetic-energy cutoff     =      80.0000  Ry
     charge density cutoff     =     320.0000  Ry
     convergence threshold     =      1.0E-08
     mixing beta               =       0.7000
     number of iterations used =            8  plain     mixing
     Exchange-correlation      = PBE ( 1  4  3  4 0 0)
     Assuming isolated system, Martyna-Tuckerman method


     celldm(1)=  32.125344  celldm(2)=   0.000000  celldm(3)=   0.000000
     celldm(4)=   0.000000  celldm(5)=   0.000000  celldm(6)=   0.000000

     crystal axes: (cart. coord. in units of alat)
               a(1) = (   1.000000   0.000000   0.000000 )  
               a(2) = (   0.000000   1.000000   0.000000 )  
               a(3) = (   0.000000   0.000000   1.000000 )  

     reciprocal axes: (cart. coord. in units 2 pi/alat)
               b(1) = (  1.000000  0.000000  0.000000 )  
               b(2) = (  0.000000  1.000000  0.000000 )  
               b(3) = (  0.000000  0.000000  1.000000 )  


     PseudoPot. # 1 for  C read from file:
     ./C.pbe-mt_fhi.UPF
     MD5 check sum: 058ca341f9d6d5327d9962fd88a91b65
     Pseudo is Norm-conserving, Zval =  4.0
     Generated using FHI98PP, converted with fhi2upf.x v.5.0.2
     Using radial grid of  461 points,  3 beta functions with: 
                l(1) =   0
                l(2) =   1
                l(3) =   3

     PseudoPot. # 2 for  H read from file:
     ./H.pbe-mt_fhi.UPF
     MD5 check sum: a19bd5488733b3d98581df861506e80d
     Pseudo is Norm-conserving, Zval =  1.0
     Generated using FHI98PP, converted with fhi2upf.x v.5.0.2
     Using radial grid of  387 points,  3 beta functions with: 
                l(1) =   0
                l(2) =   1
                l(3) =   3

     PseudoPot. # 3 for Cl read from file:
     ./Cl.pbe-mt_fhi.UPF
     MD5 check sum: 2690b95bbfe21454a1a3af22474751ef
     Pseudo is Norm-conserving, Zval =  7.0
     Generated using FHI98PP, converted with fhi2upf.x v.5.0.2
     Using radial grid of  503 points,  3 beta functions with: 
                l(1) =   0
                l(2) =   1
                l(3) =   3

     atomic species   valence    mass     pseudopotential
        C              4.00    12.01070      C( 1.00)
        H              1.00     1.00794      H( 1.00)
        Cl             7.00     1.00000     Cl( 1.00)

     Starting magnetic structure 
     atomic species   magnetization
        C            0.000
        H            0.000
        Cl           0.000

     No symmetry found


                                    s                        frac. trans.

      isym =  1     identity                                     

 cryst.   s( 1) = (     1          0          0      )
                  (     0          1          0      )
                  (     0          0          1      )

 cart.    s( 1) = (  1.0000000  0.0000000  0.0000000 )
                  (  0.0000000  1.0000000  0.0000000 )
                  (  0.0000000  0.0000000  1.0000000 )


     point group C_1 (1)    
     there are  1 classes
     the character table:

       E    
A      1.00

     the symmetry operations in each class:
     E        1

   Cartesian axes

     site n.     atom                  positions (alat units)
         1           C   tau(   1) = (   0.0000000   0.0821765   0.0000000  )
         2           C   tau(   2) = (   0.0711647   0.0410882   0.0000000  )
         3           C   tau(   3) = (   0.0711647  -0.0410882   0.0000000  )
         4           C   tau(   4) = (   0.0000000  -0.0821765   0.0000000  )
         5           C   tau(   5) = (  -0.0711647  -0.0410882   0.0000000  )
         6           C   tau(   6) = (  -0.0711647   0.0410882   0.0000000  )
         7           H   tau(   7) = (   0.0000000   0.1459412   0.0000000  )
         8           H   tau(   8) = (   0.1263882   0.0729706   0.0000000  )
         9           H   tau(   9) = (   0.1263882  -0.0729706   0.0000000  )
        10           H   tau(  10) = (   0.0000000  -0.1459412   0.0000000  )
        11           H   tau(  11) = (  -0.1263882  -0.0729706   0.0000000  )
        12           H   tau(  12) = (  -0.1263882   0.0729706   0.0000000  )
        13           Cl  tau(  13) = (   0.0355824   0.0616324   0.1764706  )

   Crystallographic axes

     site n.     atom                  positions (cryst. coord.)
         1           C   tau(   1) = (  0.0000000  0.0821765  0.0000000  )
         2           C   tau(   2) = (  0.0711647  0.0410882  0.0000000  )
         3           C   tau(   3) = (  0.0711647 -0.0410882  0.0000000  )
         4           C   tau(   4) = (  0.0000000 -0.0821765  0.0000000  )
         5           C   tau(   5) = ( -0.0711647 -0.0410882  0.0000000  )
         6           C   tau(   6) = ( -0.0711647  0.0410882  0.0000000  )
         7           H   tau(   7) = (  0.0000000  0.1459412  0.0000000  )
         8           H   tau(   8) = (  0.1263882  0.0729706  0.0000000  )
         9           H   tau(   9) = (  0.1263882 -0.0729706  0.0000000  )
        10           H   tau(  10) = (  0.0000000 -0.1459412  0.0000000  )
        11           H   tau(  11) = ( -0.1263882 -0.0729706  0.0000000  )
        12           H   tau(  12) = ( -0.1263882  0.0729706  0.0000000  )
        13           Cl  tau(  13) = (  0.0355824  0.0616324  0.1764706  )

     number of k points=     2
                       cart. coord. in units 2pi/alat
        k(    1) = (   0.0000000   0.0000000   0.0000000), wk =   1.0000000
        k(    2) = (   0.0000000   0.0000000   0.0000000), wk =   1.0000000

                       cryst. coord.
        k(    1) = (   0.0000000   0.0000000   0.0000000), wk =   1.0000000
        k(    2) = (   0.0000000   0.0000000   0.0000000), wk =   1.0000000

     Dense  grid:  1602566 G-vectors     FFT dimensions: ( 192, 192, 192)

     Largest allocated arrays     est. size (Mb)     dimensions
        Kohn-Sham Wavefunctions         0.12 Mb     (     203,   40)
        NL pseudopotentials             0.44 Mb     (     203,  143)
        Each V/rho on FFT grid          1.12 Mb     (   36864,   2)
        Each G-vector array             0.01 Mb     (    1565)
        G-vector shells                 0.01 Mb     (     737)
     Largest temporary arrays     est. size (Mb)     dimensions
        Each subspace H/S matrix        0.00 Mb     (       1,    1)
        Each <psi_i|beta_j> matrix      0.04 Mb     (     143,   40)
        Arrays for rho mixing           4.50 Mb     (   36864,    8)
 
     Using Hirshfeld
        Amplitude [Ry a.u.] : -3.8779E-01
        Acceptor Fragment start :          13
        Acceptor Fragment end   :          13
        Donor Fragment start :           1
        Donor Fragment end   :          12
 

     Initial potential from superposition of free atoms
     Check: negative starting charge=(component1):   -0.000248
     Check: negative starting charge=(component2):   -0.000248

     starting charge   36.99968, renormalised to   37.00000

     negative rho (up, down):  2.481E-04 2.481E-04
     Starting wfc are  208 randomized atomic wfcs

     total cpu time spent up to now is       19.3 secs

     per-process dynamical memory:    44.8 Mb

     Self-consistent Calculation

     iteration #  1     ecut=    80.00 Ry     beta=0.70
     CG style diagonalization
     ethr =  1.00E-02,  avg # of iterations =  3.6

     negative rho (up, down):  2.600E-05 2.899E-05
 
     Magnetic moment per site:
     atom:    1    charge:    1.0251    magn:    0.0311    constr:    0.0000
     atom:    2    charge:    1.0249    magn:    0.0318    constr:    0.0000
     atom:    3    charge:    1.0237    magn:    0.0306    constr:    0.0000
     atom:    4    charge:    1.0235    magn:    0.0305    constr:    0.0000
     atom:    5    charge:    1.0228    magn:    0.0302    constr:    0.0000
     atom:    6    charge:    1.0231    magn:    0.0306    constr:    0.0000
     atom:    7    charge:    0.4459    magn:    0.0014    constr:    0.0000
     atom:    8    charge:    0.4443    magn:    0.0011    constr:    0.0000
     atom:    9    charge:    0.4443    magn:    0.0011    constr:    0.0000
     atom:   10    charge:    0.4454    magn:    0.0012    constr:    0.0000
     atom:   11    charge:    0.4439    magn:    0.0013    constr:    0.0000
     atom:   12    charge:    0.4441    magn:    0.0012    constr:    0.0000
     atom:   13    charge:    3.1676    magn:    0.0005    constr:    0.0000

     total cpu time spent up to now is       24.8 secs

     The total energy is the sum of the following terms:

     one-electron contribution =    -729.42156341 Ry
     hartree contribution      =     372.56571514 Ry
     xc contribution           =     -31.51072789 Ry
     ewald contribution        =     268.46058250 Ry

     total energy              =    -103.18743590 Ry
     Harris-Foulkes estimate   =    -117.32367132 Ry
     estimated scf accuracy    <      16.75523080 Ry

     total magnetization       =     1.00 Bohr mag/cell
     absolute magnetization    =     1.01 Bohr mag/cell

     iteration #  2     ecut=    80.00 Ry     beta=0.70
     CG style diagonalization
     ethr =  1.00E-02,  avg # of iterations =  9.5

     negative rho (up, down):  5.448E-06 9.214E-06
 
     Magnetic moment per site:
     atom:    1    charge:    0.8986    magn:    0.0307    constr:    0.0000
     atom:    2    charge:    0.8984    magn:    0.0313    constr:    0.0000
     atom:    3    charge:    0.8924    magn:    0.0274    constr:    0.0000
     atom:    4    charge:    0.8904    magn:    0.0265    constr:    0.0000
     atom:    5    charge:    0.8898    magn:    0.0262    constr:    0.0000
     atom:    6    charge:    0.8919    magn:    0.0274    constr:    0.0000
     atom:    7    charge:    0.4439    magn:    0.0061    constr:    0.0000
     atom:    8    charge:    0.4423    magn:    0.0059    constr:    0.0000
     atom:    9    charge:    0.4328    magn:    0.0028    constr:    0.0000
     atom:   10    charge:    0.4325    magn:    0.0022    constr:    0.0000
     atom:   11    charge:    0.4312    magn:    0.0022    constr:    0.0000
     atom:   12    charge:    0.4326    magn:    0.0030    constr:    0.0000
     atom:   13    charge:    5.4102    magn:    0.0060    constr:    0.0000

     total cpu time spent up to now is       31.6 secs

     The total energy is the sum of the following terms:

     one-electron contribution =    -566.67605498 Ry
     hartree contribution      =     347.55854149 Ry
     xc contribution           =     -30.26757564 Ry
     ewald contribution        =     268.46058250 Ry

     total energy              =     -85.70889065 Ry
     Harris-Foulkes estimate   =    -140.72922170 Ry
     estimated scf accuracy    <     203.69988875 Ry

     total magnetization       =     1.00 Bohr mag/cell
     absolute magnetization    =     1.07 Bohr mag/cell

     iteration #  3     ecut=    80.00 Ry     beta=0.70
     CG style diagonalization
     ethr =  1.00E-02,  avg # of iterations =  8.9

     negative rho (up, down):  5.534E-07 9.211E-07
 
     Magnetic moment per site:
     atom:    1    charge:    0.8798    magn:    0.0210    constr:    0.0000
     atom:    2    charge:    0.8788    magn:    0.0216    constr:    0.0000
     atom:    3    charge:    0.8728    magn:    0.0198    constr:    0.0000
     atom:    4    charge:    0.8723    magn:    0.0195    constr:    0.0000
     atom:    5    charge:    0.8713    magn:    0.0193    constr:    0.0000
     atom:    6    charge:    0.8742    magn:    0.0184    constr:    0.0000
     atom:    7    charge:    0.4647    magn:    0.0038    constr:    0.0000
     atom:    8    charge:    0.4632    magn:    0.0037    constr:    0.0000
     atom:    9    charge:    0.4598    magn:    0.0012    constr:    0.0000
     atom:   10    charge:    0.4641    magn:    0.0012    constr:    0.0000
     atom:   11    charge:    0.4631    magn:    0.0014    constr:    0.0000
     atom:   12    charge:    0.4594    magn:    0.0014    constr:    0.0000
     atom:   13    charge:    5.6260    magn:    0.2933    constr:    0.0000

     total cpu time spent up to now is       38.2 secs

     The total energy is the sum of the following terms:

     one-electron contribution =    -702.45535824 Ry
     hartree contribution      =     349.64107855 Ry
     xc contribution           =     -30.51621601 Ry
     ewald contribution        =     268.46058250 Ry

     total energy              =    -114.32430154 Ry
     Harris-Foulkes estimate   =    -114.45842147 Ry
     estimated scf accuracy    <       0.55935957 Ry

     total magnetization       =     1.00 Bohr mag/cell
     absolute magnetization    =     1.07 Bohr mag/cell

     iteration #  4     ecut=    80.00 Ry     beta=0.70
     CG style diagonalization
     ethr =  1.51E-03,  avg # of iterations =  4.4

     negative rho (up, down):  6.964E-07 1.085E-06
 
     Magnetic moment per site:
     atom:    1    charge:    0.8683    magn:    0.0152    constr:    0.0000
     atom:    2    charge:    0.8678    magn:    0.0158    constr:    0.0000
     atom:    3    charge:    0.8625    magn:    0.0143    constr:    0.0000
     atom:    4    charge:    0.8578    magn:    0.0140    constr:    0.0000
     atom:    5    charge:    0.8573    magn:    0.0137    constr:    0.0000
     atom:    6    charge:    0.8622    magn:    0.0133    constr:    0.0000
     atom:    7    charge:    0.4766    magn:    0.0026    constr:    0.0000
     atom:    8    charge:    0.4755    magn:    0.0023    constr:    0.0000
     atom:    9    charge:    0.4741    magn:    0.0005    constr:    0.0000
     atom:   10    charge:    0.4772    magn:    0.0002    constr:    0.0000
     atom:   11    charge:    0.4758    magn:    0.0005    constr:    0.0000
     atom:   12    charge:    0.4738    magn:    0.0007    constr:    0.0000
     atom:   13    charge:    5.7055    magn:    0.4736    constr:    0.0000

     total cpu time spent up to now is       42.0 secs

     The total energy is the sum of the following terms:

     one-electron contribution =    -701.87022117 Ry
     hartree contribution      =     350.10437604 Ry
     xc contribution           =     -30.57394358 Ry
     ewald contribution        =     268.46058250 Ry

     total energy              =    -114.39329692 Ry
     Harris-Foulkes estimate   =    -114.42024147 Ry
     estimated scf accuracy    <       0.24176025 Ry

     total magnetization       =     1.00 Bohr mag/cell
     absolute magnetization    =     1.07 Bohr mag/cell

     iteration #  5     ecut=    80.00 Ry     beta=0.70
     CG style diagonalization
     ethr =  6.53E-04,  avg # of iterations =  3.0

     negative rho (up, down):  1.392E-04 1.802E-04
 
     Magnetic moment per site:
     atom:    1    charge:    0.8458    magn:    0.0068    constr:    0.0000
     atom:    2    charge:    0.8452    magn:    0.0071    constr:    0.0000
     atom:    3    charge:    0.8450    magn:    0.0066    constr:    0.0000
     atom:    4    charge:    0.8453    magn:    0.0051    constr:    0.0000
     atom:    5    charge:    0.8451    magn:    0.0047    constr:    0.0000
     atom:    6    charge:    0.8442    magn:    0.0065    constr:    0.0000
     atom:    7    charge:    0.4954    magn:    0.0008    constr:    0.0000
     atom:    8    charge:    0.4945    magn:    0.0003    constr:    0.0000
     atom:    9    charge:    0.4942    magn:   -0.0004    constr:    0.0000
     atom:   10    charge:    0.4948    magn:   -0.0011    constr:    0.0000
     atom:   11    charge:    0.4929    magn:   -0.0008    constr:    0.0000
     atom:   12    charge:    0.4942    magn:   -0.0004    constr:    0.0000
     atom:   13    charge:    5.8183    magn:    0.7443    constr:    0.0000

     total cpu time spent up to now is       45.0 secs

     The total energy is the sum of the following terms:

     one-electron contribution =    -701.56577343 Ry
     hartree contribution      =     350.41446469 Ry
     xc contribution           =     -30.67032668 Ry
     ewald contribution        =     268.46058250 Ry

     total energy              =    -114.38069255 Ry
     Harris-Foulkes estimate   =    -114.40540146 Ry
     estimated scf accuracy    <       0.14379033 Ry

     total magnetization       =     1.00 Bohr mag/cell
     absolute magnetization    =     1.06 Bohr mag/cell

     iteration #  6     ecut=    80.00 Ry     beta=0.70
     CG style diagonalization
     ethr =  3.89E-04,  avg # of iterations =  3.1

     negative rho (up, down):  7.864E-05 1.061E-04
 
     Magnetic moment per site:
     atom:    1    charge:    0.8439    magn:    0.0048    constr:    0.0000
     atom:    2    charge:    0.8432    magn:    0.0048    constr:    0.0000
     atom:    3    charge:    0.8454    magn:    0.0003    constr:    0.0000
     atom:    4    charge:    0.8447    magn:    0.0022    constr:    0.0000
     atom:    5    charge:    0.8444    magn:    0.0015    constr:    0.0000
     atom:    6    charge:    0.8451    magn:    0.0003    constr:    0.0000
     atom:    7    charge:    0.4960    magn:    0.0007    constr:    0.0000
     atom:    8    charge:    0.4950    magn:    0.0003    constr:    0.0000
     atom:    9    charge:    0.4945    magn:   -0.0006    constr:    0.0000
     atom:   10    charge:    0.4953    magn:   -0.0010    constr:    0.0000
     atom:   11    charge:    0.4936    magn:   -0.0008    constr:    0.0000
     atom:   12    charge:    0.4945    magn:   -0.0006    constr:    0.0000
     atom:   13    charge:    5.7868    magn:    0.8589    constr:    0.0000

     total cpu time spent up to now is       48.0 secs

     The total energy is the sum of the following terms:

     one-electron contribution =    -704.28286957 Ry
     hartree contribution      =     350.30706319 Ry
     xc contribution           =     -30.64300769 Ry
     ewald contribution        =     268.46058250 Ry

     total energy              =    -114.38855356 Ry
     Harris-Foulkes estimate   =    -114.39670560 Ry
     estimated scf accuracy    <       0.16051616 Ry

     total magnetization       =     1.00 Bohr mag/cell
     absolute magnetization    =     1.99 Bohr mag/cell

     iteration #  7     ecut=    80.00 Ry     beta=0.70
     CG style diagonalization
     ethr =  3.89E-04,  avg # of iterations =  3.0

     negative rho (up, down):  1.151E-04 1.397E-04
 
     Magnetic moment per site:
     atom:    1    charge:    0.8426    magn:    0.0005    constr:    0.0000
     atom:    2    charge:    0.8415    magn:    0.0004    constr:    0.0000
     atom:    3    charge:    0.8407    magn:   -0.0033    constr:    0.0000
     atom:    4    charge:    0.8446    magn:   -0.0019    constr:    0.0000
     atom:    5    charge:    0.8432    magn:   -0.0025    constr:    0.0000
     atom:    6    charge:    0.8414    magn:   -0.0034    constr:    0.0000
     atom:    7    charge:    0.4996    magn:    0.0002    constr:    0.0000
     atom:    8    charge:    0.4984    magn:   -0.0001    constr:    0.0000
     atom:    9    charge:    0.4975    magn:   -0.0006    constr:    0.0000
     atom:   10    charge:    0.4985    magn:   -0.0010    constr:    0.0000
     atom:   11    charge:    0.4970    magn:   -0.0008    constr:    0.0000
     atom:   12    charge:    0.4976    magn:   -0.0006    constr:    0.0000
     atom:   13    charge:    5.8234    magn:    0.9808    constr:    0.0000

     total cpu time spent up to now is       51.0 secs

     The total energy is the sum of the following terms:

     one-electron contribution =    -702.71472311 Ry
     hartree contribution      =     350.69493692 Ry
     xc contribution           =     -30.70323281 Ry
     ewald contribution        =     268.46058250 Ry

     total energy              =    -114.39673532 Ry
     Harris-Foulkes estimate   =    -114.39887006 Ry
     estimated scf accuracy    <       0.03370088 Ry

     total magnetization       =     1.00 Bohr mag/cell
     absolute magnetization    =     1.11 Bohr mag/cell

     iteration #  8     ecut=    80.00 Ry     beta=0.70
     CG style diagonalization
     c_bands:  1 eigenvalues not converged
     ethr =  9.11E-05,  avg # of iterations =  3.6

     negative rho (up, down):  6.323E-05 7.537E-05
 
     Magnetic moment per site:
     atom:    1    charge:    0.8428    magn:   -0.0012    constr:    0.0000
     atom:    2    charge:    0.8422    magn:   -0.0016    constr:    0.0000
     atom:    3    charge:    0.8439    magn:   -0.0082    constr:    0.0000
     atom:    4    charge:    0.8431    magn:   -0.0043    constr:    0.0000
     atom:    5    charge:    0.8422    magn:   -0.0050    constr:    0.0000
     atom:    6    charge:    0.8442    magn:   -0.0083    constr:    0.0000
     atom:    7    charge:    0.4994    magn:    0.0001    constr:    0.0000
     atom:    8    charge:    0.4981    magn:   -0.0001    constr:    0.0000
     atom:    9    charge:    0.4972    magn:   -0.0006    constr:    0.0000
     atom:   10    charge:    0.4980    magn:   -0.0008    constr:    0.0000
     atom:   11    charge:    0.4966    magn:   -0.0007    constr:    0.0000
     atom:   12    charge:    0.4972    magn:   -0.0006    constr:    0.0000
     atom:   13    charge:    5.8145    magn:    1.0669    constr:    0.0000

     total cpu time spent up to now is       54.3 secs

     The total energy is the sum of the following terms:

     one-electron contribution =    -704.25441053 Ry
     hartree contribution      =     350.74492105 Ry
     xc contribution           =     -30.71025441 Ry
     ewald contribution        =     268.46058250 Ry

     total energy              =    -114.39823719 Ry
     Harris-Foulkes estimate   =    -114.39991909 Ry
     estimated scf accuracy    <       0.10683138 Ry

     total magnetization       =     1.00 Bohr mag/cell
     absolute magnetization    =     2.17 Bohr mag/cell

     iteration #  9     ecut=    80.00 Ry     beta=0.70
     CG style diagonalization
     ethr =  9.11E-05,  avg # of iterations =  3.0

     negative rho (up, down):  7.351E-06 8.975E-06
 
     Magnetic moment per site:
     atom:    1    charge:    0.8452    magn:   -0.0032    constr:    0.0000
     atom:    2    charge:    0.8445    magn:   -0.0035    constr:    0.0000
     atom:    3    charge:    0.8444    magn:   -0.0099    constr:    0.0000
     atom:    4    charge:    0.8436    magn:   -0.0067    constr:    0.0000
     atom:    5    charge:    0.8427    magn:   -0.0069    constr:    0.0000
     atom:    6    charge:    0.8443    magn:   -0.0101    constr:    0.0000
     atom:    7    charge:    0.4989    magn:    0.0001    constr:    0.0000
     atom:    8    charge:    0.4975    magn:    0.0001    constr:    0.0000
     atom:    9    charge:    0.4961    magn:   -0.0002    constr:    0.0000
     atom:   10    charge:    0.4972    magn:   -0.0004    constr:    0.0000
     atom:   11    charge:    0.4959    magn:   -0.0003    constr:    0.0000
     atom:   12    charge:    0.4961    magn:   -0.0003    constr:    0.0000
     atom:   13    charge:    5.8157    magn:    1.1140    constr:    0.0000

     total cpu time spent up to now is       57.3 secs

     The total energy is the sum of the following terms:

     one-electron contribution =    -703.02001975 Ry
     hartree contribution      =     350.81709721 Ry
     xc contribution           =     -30.72073276 Ry
     ewald contribution        =     268.46058250 Ry

     total energy              =    -114.40206948 Ry
     Harris-Foulkes estimate   =    -114.40064558 Ry
     estimated scf accuracy    <       0.00997211 Ry

     total magnetization       =     1.00 Bohr mag/cell
     absolute magnetization    =     1.42 Bohr mag/cell

     iteration # 10     ecut=    80.00 Ry     beta=0.70
     CG style diagonalization
     ethr =  2.70E-05,  avg # of iterations =  3.1

     negative rho (up, down):  8.860E-06 9.767E-06
 
     Magnetic moment per site:
     atom:    1    charge:    0.8451    magn:   -0.0041    constr:    0.0000
     atom:    2    charge:    0.8443    magn:   -0.0042    constr:    0.0000
     atom:    3    charge:    0.8439    magn:   -0.0099    constr:    0.0000
     atom:    4    charge:    0.8441    magn:   -0.0077    constr:    0.0000
     atom:    5    charge:    0.8430    magn:   -0.0076    constr:    0.0000
     atom:    6    charge:    0.8441    magn:   -0.0102    constr:    0.0000
     atom:    7    charge:    0.4991    magn:    0.0002    constr:    0.0000
     atom:    8    charge:    0.4978    magn:    0.0001    constr:    0.0000
     atom:    9    charge:    0.4962    magn:    0.0000    constr:    0.0000
     atom:   10    charge:    0.4972    magn:   -0.0002    constr:    0.0000
     atom:   11    charge:    0.4958    magn:   -0.0001    constr:    0.0000
     atom:   12    charge:    0.4962    magn:    0.0000    constr:    0.0000
     atom:   13    charge:    5.8214    magn:    1.1244    constr:    0.0000

     total cpu time spent up to now is       60.4 secs

     The total energy is the sum of the following terms:

     one-electron contribution =    -703.02945973 Ry
     hartree contribution      =     350.85915780 Ry
     xc contribution           =     -30.72913303 Ry
     ewald contribution        =     268.46058250 Ry

     total energy              =    -114.40386099 Ry
     Harris-Foulkes estimate   =    -114.40254314 Ry
     estimated scf accuracy    <       0.00598704 Ry

     total magnetization       =     1.00 Bohr mag/cell
     absolute magnetization    =     1.52 Bohr mag/cell

     iteration # 11     ecut=    80.00 Ry     beta=0.70
     CG style diagonalization
     ethr =  1.62E-05,  avg # of iterations =  3.0

     negative rho (up, down):  1.775E-08 3.519E-09
 
     Magnetic moment per site:
     atom:    1    charge:    0.8457    magn:   -0.0058    constr:    0.0000
     atom:    2    charge:    0.8449    magn:   -0.0057    constr:    0.0000
     atom:    3    charge:    0.8438    magn:   -0.0102    constr:    0.0000
     atom:    4    charge:    0.8442    magn:   -0.0097    constr:    0.0000
     atom:    5    charge:    0.8430    magn:   -0.0092    constr:    0.0000
     atom:    6    charge:    0.8439    magn:   -0.0106    constr:    0.0000
     atom:    7    charge:    0.4992    magn:    0.0003    constr:    0.0000
     atom:    8    charge:    0.4979    magn:    0.0003    constr:    0.0000
     atom:    9    charge:    0.4960    magn:    0.0003    constr:    0.0000
     atom:   10    charge:    0.4969    magn:    0.0001    constr:    0.0000
     atom:   11    charge:    0.4956    magn:    0.0002    constr:    0.0000
     atom:   12    charge:    0.4960    magn:    0.0002    constr:    0.0000
     atom:   13    charge:    5.8171    magn:    1.1539    constr:    0.0000

     total cpu time spent up to now is       63.4 secs

     The total energy is the sum of the following terms:

     one-electron contribution =    -703.23346038 Ry
     hartree contribution      =     350.86170938 Ry
     xc contribution           =     -30.73134554 Ry
     ewald contribution        =     268.46058250 Ry

     total energy              =    -114.40550791 Ry
     Harris-Foulkes estimate   =    -114.40423538 Ry
     estimated scf accuracy    <       0.00741672 Ry

     total magnetization       =     1.00 Bohr mag/cell
     absolute magnetization    =     1.68 Bohr mag/cell

     iteration # 12     ecut=    80.00 Ry     beta=0.70
     CG style diagonalization
     ethr =  1.62E-05,  avg # of iterations =  3.1

     negative rho (up, down):  1.502E-07 1.046E-07
 
     Magnetic moment per site:
     atom:    1    charge:    0.8457    magn:   -0.0062    constr:    0.0000
     atom:    2    charge:    0.8449    magn:   -0.0060    constr:    0.0000
     atom:    3    charge:    0.8436    magn:   -0.0096    constr:    0.0000
     atom:    4    charge:    0.8441    magn:   -0.0102    constr:    0.0000
     atom:    5    charge:    0.8430    magn:   -0.0095    constr:    0.0000
     atom:    6    charge:    0.8437    magn:   -0.0100    constr:    0.0000
     atom:    7    charge:    0.4992    magn:    0.0003    constr:    0.0000
     atom:    8    charge:    0.4979    magn:    0.0003    constr:    0.0000
     atom:    9    charge:    0.4961    magn:    0.0003    constr:    0.0000
     atom:   10    charge:    0.4969    magn:    0.0002    constr:    0.0000
     atom:   11    charge:    0.4957    magn:    0.0002    constr:    0.0000
     atom:   12    charge:    0.4961    magn:    0.0003    constr:    0.0000
     atom:   13    charge:    5.8176    magn:    1.1527    constr:    0.0000

     total cpu time spent up to now is       66.4 secs

     The total energy is the sum of the following terms:

     one-electron contribution =    -703.10118519 Ry
     hartree contribution      =     350.87003578 Ry
     xc contribution           =     -30.73309455 Ry
     ewald contribution        =     268.46058250 Ry

     total energy              =    -114.40651198 Ry
     Harris-Foulkes estimate   =    -114.40594779 Ry
     estimated scf accuracy    <       0.00278712 Ry

     total magnetization       =     1.00 Bohr mag/cell
     absolute magnetization    =     1.62 Bohr mag/cell

     iteration # 13     ecut=    80.00 Ry     beta=0.70
     CG style diagonalization
     ethr =  7.53E-06,  avg # of iterations =  3.1

     negative rho (up, down):  9.223E-11 6.331E-07
 
     Magnetic moment per site:
     atom:    1    charge:    0.8457    magn:   -0.0088    constr:    0.0000
     atom:    2    charge:    0.8448    magn:   -0.0083    constr:    0.0000
     atom:    3    charge:    0.8435    magn:   -0.0078    constr:    0.0000
     atom:    4    charge:    0.8446    magn:   -0.0133    constr:    0.0000
     atom:    5    charge:    0.8434    magn:   -0.0117    constr:    0.0000
     atom:    6    charge:    0.8435    magn:   -0.0084    constr:    0.0000
     atom:    7    charge:    0.4992    magn:    0.0004    constr:    0.0000
     atom:    8    charge:    0.4980    magn:    0.0005    constr:    0.0000
     atom:    9    charge:    0.4961    magn:    0.0006    constr:    0.0000
     atom:   10    charge:    0.4968    magn:    0.0006    constr:    0.0000
     atom:   11    charge:    0.4955    magn:    0.0005    constr:    0.0000
     atom:   12    charge:    0.4960    magn:    0.0006    constr:    0.0000
     atom:   13    charge:    5.8159    magn:    1.1736    constr:    0.0000

     total cpu time spent up to now is       69.5 secs

     The total energy is the sum of the following terms:

     one-electron contribution =    -703.12315657 Ry
     hartree contribution      =     350.90864347 Ry
     xc contribution           =     -30.74627496 Ry
     ewald contribution        =     268.46058250 Ry

     total energy              =    -114.40692125 Ry
     Harris-Foulkes estimate   =    -114.40659845 Ry
     estimated scf accuracy    <       0.00265425 Ry

     total magnetization       =     1.00 Bohr mag/cell
     absolute magnetization    =     1.64 Bohr mag/cell

     iteration # 14     ecut=    80.00 Ry     beta=0.70
     CG style diagonalization
     ethr =  7.17E-06,  avg # of iterations =  3.2

     negative rho (up, down):  5.632E-08 9.990E-08
 
     Magnetic moment per site:
     atom:    1    charge:    0.8458    magn:   -0.0087    constr:    0.0000
     atom:    2    charge:    0.8448    magn:   -0.0081    constr:    0.0000
     atom:    3    charge:    0.8433    magn:   -0.0065    constr:    0.0000
     atom:    4    charge:    0.8445    magn:   -0.0129    constr:    0.0000
     atom:    5    charge:    0.8433    magn:   -0.0113    constr:    0.0000
     atom:    6    charge:    0.8436    magn:   -0.0071    constr:    0.0000
     atom:    7    charge:    0.4991    magn:    0.0004    constr:    0.0000
     atom:    8    charge:    0.4979    magn:    0.0005    constr:    0.0000
     atom:    9    charge:    0.4961    magn:    0.0005    constr:    0.0000
     atom:   10    charge:    0.4969    magn:    0.0005    constr:    0.0000
     atom:   11    charge:    0.4956    magn:    0.0005    constr:    0.0000
     atom:   12    charge:    0.4961    magn:    0.0005    constr:    0.0000
     atom:   13    charge:    5.8156    magn:    1.1588    constr:    0.0000

     total cpu time spent up to now is       72.5 secs

     The total energy is the sum of the following terms:

     one-electron contribution =    -703.07253109 Ry
     hartree contribution      =     350.90949565 Ry
     xc contribution           =     -30.74322015 Ry
     ewald contribution        =     268.46058250 Ry

     total energy              =    -114.40859976 Ry
     Harris-Foulkes estimate   =    -114.40829085 Ry
     estimated scf accuracy    <       0.00097616 Ry

     total magnetization       =     1.00 Bohr mag/cell
     absolute magnetization    =     1.63 Bohr mag/cell

     iteration # 15     ecut=    80.00 Ry     beta=0.70
     CG style diagonalization
     ethr =  2.64E-06,  avg # of iterations =  3.2

     negative rho (up, down):  9.146E-06 1.108E-05
 
     Magnetic moment per site:
     atom:    1    charge:    0.8455    magn:   -0.0079    constr:    0.0000
     atom:    2    charge:    0.8446    magn:   -0.0073    constr:    0.0000
     atom:    3    charge:    0.8432    magn:   -0.0032    constr:    0.0000
     atom:    4    charge:    0.8442    magn:   -0.0116    constr:    0.0000
     atom:    5    charge:    0.8430    magn:   -0.0101    constr:    0.0000
     atom:    6    charge:    0.8433    magn:   -0.0038    constr:    0.0000
     atom:    7    charge:    0.4990    magn:    0.0004    constr:    0.0000
     atom:    8    charge:    0.4977    magn:    0.0004    constr:    0.0000
     atom:    9    charge:    0.4963    magn:    0.0001    constr:    0.0000
     atom:   10    charge:    0.4971    magn:    0.0003    constr:    0.0000
     atom:   11    charge:    0.4958    magn:    0.0003    constr:    0.0000
     atom:   12    charge:    0.4963    magn:    0.0001    constr:    0.0000
     atom:   13    charge:    5.8167    magn:    1.1119    constr:    0.0000

     total cpu time spent up to now is       75.7 secs

     The total energy is the sum of the following terms:

     one-electron contribution =    -703.04361922 Ry
     hartree contribution      =     350.89134175 Ry
     xc contribution           =     -30.73401624 Ry
     ewald contribution        =     268.46058250 Ry

     total energy              =    -114.40891138 Ry
     Harris-Foulkes estimate   =    -114.40870276 Ry
     estimated scf accuracy    <       0.00091078 Ry

     total magnetization       =     1.00 Bohr mag/cell
     absolute magnetization    =     1.61 Bohr mag/cell

     iteration # 16     ecut=    80.00 Ry     beta=0.70
     CG style diagonalization
     ethr =  2.46E-06,  avg # of iterations =  3.3

     negative rho (up, down):  9.795E-06 1.176E-05
 
     Magnetic moment per site:
     atom:    1    charge:    0.8455    magn:   -0.0080    constr:    0.0000
     atom:    2    charge:    0.8446    magn:   -0.0074    constr:    0.0000
     atom:    3    charge:    0.8432    magn:   -0.0032    constr:    0.0000
     atom:    4    charge:    0.8442    magn:   -0.0117    constr:    0.0000
     atom:    5    charge:    0.8430    magn:   -0.0102    constr:    0.0000
     atom:    6    charge:    0.8433    magn:   -0.0038    constr:    0.0000
     atom:    7    charge:    0.4990    magn:    0.0004    constr:    0.0000
     atom:    8    charge:    0.4977    magn:    0.0004    constr:    0.0000
     atom:    9    charge:    0.4963    magn:    0.0001    constr:    0.0000
     atom:   10    charge:    0.4972    magn:    0.0003    constr:    0.0000
     atom:   11    charge:    0.4958    magn:    0.0003    constr:    0.0000
     atom:   12    charge:    0.4963    magn:    0.0001    constr:    0.0000
     atom:   13    charge:    5.8166    magn:    1.1133    constr:    0.0000

     total cpu time spent up to now is       78.8 secs

     The total energy is the sum of the following terms:

     one-electron contribution =    -703.06019010 Ry
     hartree contribution      =     350.89398627 Ry
     xc contribution           =     -30.73460262 Ry
     ewald contribution        =     268.46058250 Ry

     total energy              =    -114.40955031 Ry
     Harris-Foulkes estimate   =    -114.40954959 Ry
     estimated scf accuracy    <       0.00135117 Ry

     total magnetization       =     1.00 Bohr mag/cell
     absolute magnetization    =     1.58 Bohr mag/cell

     iteration # 17     ecut=    80.00 Ry     beta=0.70
     CG style diagonalization
     ethr =  2.46E-06,  avg # of iterations =  3.0

     negative rho (up, down):  6.044E-06 7.631E-06
 
     Magnetic moment per site:
     atom:    1    charge:    0.8456    magn:   -0.0078    constr:    0.0000
     atom:    2    charge:    0.8447    magn:   -0.0072    constr:    0.0000
     atom:    3    charge:    0.8429    magn:   -0.0045    constr:    0.0000
     atom:    4    charge:    0.8442    magn:   -0.0117    constr:    0.0000
     atom:    5    charge:    0.8429    magn:   -0.0102    constr:    0.0000
     atom:    6    charge:    0.8430    magn:   -0.0051    constr:    0.0000
     atom:    7    charge:    0.4991    magn:    0.0005    constr:    0.0000
     atom:    8    charge:    0.4978    magn:    0.0005    constr:    0.0000
     atom:    9    charge:    0.4963    magn:    0.0005    constr:    0.0000
     atom:   10    charge:    0.4973    magn:    0.0005    constr:    0.0000
     atom:   11    charge:    0.4960    magn:    0.0004    constr:    0.0000
     atom:   12    charge:    0.4963    magn:    0.0005    constr:    0.0000
     atom:   13    charge:    5.8165    magn:    1.1166    constr:    0.0000

     total cpu time spent up to now is       81.8 secs

     The total energy is the sum of the following terms:

     one-electron contribution =    -703.05459709 Ry
     hartree contribution      =     350.88797055 Ry
     xc contribution           =     -30.73474563 Ry
     ewald contribution        =     268.46058250 Ry

     total energy              =    -114.40972105 Ry
     Harris-Foulkes estimate   =    -114.40955305 Ry
     estimated scf accuracy    <       0.00132429 Ry

     total magnetization       =     1.00 Bohr mag/cell
     absolute magnetization    =     1.58 Bohr mag/cell

     iteration # 18     ecut=    80.00 Ry     beta=0.70
     CG style diagonalization
     ethr =  2.46E-06,  avg # of iterations =  3.0

     negative rho (up, down):  1.517E-07 2.647E-07
 
     Magnetic moment per site:
     atom:    1    charge:    0.8456    magn:   -0.0074    constr:    0.0000
     atom:    2    charge:    0.8448    magn:   -0.0069    constr:    0.0000
     atom:    3    charge:    0.8432    magn:   -0.0076    constr:    0.0000
     atom:    4    charge:    0.8441    magn:   -0.0118    constr:    0.0000
     atom:    5    charge:    0.8429    magn:   -0.0104    constr:    0.0000
     atom:    6    charge:    0.8433    magn:   -0.0082    constr:    0.0000
     atom:    7    charge:    0.4991    magn:    0.0005    constr:    0.0000
     atom:    8    charge:    0.4978    magn:    0.0006    constr:    0.0000
     atom:    9    charge:    0.4962    magn:    0.0010    constr:    0.0000
     atom:   10    charge:    0.4972    magn:    0.0007    constr:    0.0000
     atom:   11    charge:    0.4959    magn:    0.0006    constr:    0.0000
     atom:   12    charge:    0.4962    magn:    0.0010    constr:    0.0000
     atom:   13    charge:    5.8141    magn:    1.1387    constr:    0.0000

     total cpu time spent up to now is       84.7 secs

     The total energy is the sum of the following terms:

     one-electron contribution =    -703.07641528 Ry
     hartree contribution      =     350.89176616 Ry
     xc contribution           =     -30.73585427 Ry
     ewald contribution        =     268.46058250 Ry

     total energy              =    -114.40928226 Ry
     Harris-Foulkes estimate   =    -114.40974048 Ry
     estimated scf accuracy    <       0.00130886 Ry

     total magnetization       =     1.00 Bohr mag/cell
     absolute magnetization    =     1.59 Bohr mag/cell

     iteration # 19     ecut=    80.00 Ry     beta=0.70
     CG style diagonalization
     ethr =  2.46E-06,  avg # of iterations =  3.1
 
     Magnetic moment per site:
     atom:    1    charge:    0.8462    magn:   -0.0085    constr:    0.0000
     atom:    2    charge:    0.8454    magn:   -0.0080    constr:    0.0000
     atom:    3    charge:    0.8432    magn:   -0.0078    constr:    0.0000
     atom:    4    charge:    0.8438    magn:   -0.0126    constr:    0.0000
     atom:    5    charge:    0.8429    magn:   -0.0112    constr:    0.0000
     atom:    6    charge:    0.8429    magn:   -0.0084    constr:    0.0000
     atom:    7    charge:    0.4991    magn:    0.0004    constr:    0.0000
     atom:    8    charge:    0.4979    magn:    0.0005    constr:    0.0000
     atom:    9    charge:    0.4960    magn:    0.0007    constr:    0.0000
     atom:   10    charge:    0.4970    magn:    0.0006    constr:    0.0000
     atom:   11    charge:    0.4958    magn:    0.0006    constr:    0.0000
     atom:   12    charge:    0.4960    magn:    0.0007    constr:    0.0000
     atom:   13    charge:    5.8139    magn:    1.1686    constr:    0.0000

     total cpu time spent up to now is       87.8 secs

     The total energy is the sum of the following terms:

     one-electron contribution =    -703.01819930 Ry
     hartree contribution      =     350.88965317 Ry
     xc contribution           =     -30.73886748 Ry
     ewald contribution        =     268.46058250 Ry

     total energy              =    -114.40688114 Ry
     Harris-Foulkes estimate   =    -114.40939749 Ry
     estimated scf accuracy    <       0.00109621 Ry

     total magnetization       =     1.00 Bohr mag/cell
     absolute magnetization    =     1.57 Bohr mag/cell

     iteration # 20     ecut=    80.00 Ry     beta=0.70
     CG style diagonalization
     ethr =  2.46E-06,  avg # of iterations =  3.4

     negative rho (up, down):  5.915E-10 1.470E-06
 
     Magnetic moment per site:
     atom:    1    charge:    0.8465    magn:   -0.0101    constr:    0.0000
     atom:    2    charge:    0.8457    magn:   -0.0095    constr:    0.0000
     atom:    3    charge:    0.8427    magn:   -0.0043    constr:    0.0000
     atom:    4    charge:    0.8443    magn:   -0.0133    constr:    0.0000
     atom:    5    charge:    0.8427    magn:   -0.0118    constr:    0.0000
     atom:    6    charge:    0.8427    magn:   -0.0050    constr:    0.0000
     atom:    7    charge:    0.4991    magn:    0.0004    constr:    0.0000
     atom:    8    charge:    0.4978    magn:    0.0005    constr:    0.0000
     atom:    9    charge:    0.4961    magn:    0.0001    constr:    0.0000
     atom:   10    charge:    0.4969    magn:    0.0004    constr:    0.0000
     atom:   11    charge:    0.4957    magn:    0.0004    constr:    0.0000
     atom:   12    charge:    0.4961    magn:    0.0001    constr:    0.0000
     atom:   13    charge:    5.8133    magn:    1.1681    constr:    0.0000

     total cpu time spent up to now is       91.0 secs

     The total energy is the sum of the following terms:

     one-electron contribution =    -703.01927020 Ry
     hartree contribution      =     350.88306539 Ry
     xc contribution           =     -30.74276774 Ry
     ewald contribution        =     268.46058250 Ry

     total energy              =    -114.40628171 Ry
     Harris-Foulkes estimate   =    -114.40803500 Ry
     estimated scf accuracy    <       0.00101821 Ry

     total magnetization       =     1.00 Bohr mag/cell
     absolute magnetization    =     1.60 Bohr mag/cell

     iteration # 21     ecut=    80.00 Ry     beta=0.70
     CG style diagonalization
     ethr =  2.46E-06,  avg # of iterations =  3.2

     negative rho (up, down):  3.712E-10 1.218E-05
 
     Magnetic moment per site:
     atom:    1    charge:    0.8460    magn:   -0.0077    constr:    0.0000
     atom:    2    charge:    0.8455    magn:   -0.0074    constr:    0.0000
     atom:    3    charge:    0.8428    magn:   -0.0144    constr:    0.0000
     atom:    4    charge:    0.8441    magn:   -0.0131    constr:    0.0000
     atom:    5    charge:    0.8429    magn:   -0.0117    constr:    0.0000
     atom:    6    charge:    0.8420    magn:   -0.0151    constr:    0.0000
     atom:    7    charge:    0.4994    magn:    0.0007    constr:    0.0000
     atom:    8    charge:    0.4982    magn:    0.0010    constr:    0.0000
     atom:    9    charge:    0.4962    magn:    0.0024    constr:    0.0000
     atom:   10    charge:    0.4974    magn:    0.0014    constr:    0.0000
     atom:   11    charge:    0.4962    magn:    0.0014    constr:    0.0000
     atom:   12    charge:    0.4963    magn:    0.0025    constr:    0.0000
     atom:   13    charge:    5.8101    magn:    1.1961    constr:    0.0000

     total cpu time spent up to now is       94.2 secs

     The total energy is the sum of the following terms:

     one-electron contribution =    -702.95726223 Ry
     hartree contribution      =     350.88749729 Ry
     xc contribution           =     -30.74532401 Ry
     ewald contribution        =     268.46058250 Ry

     total energy              =    -114.40695260 Ry
     Harris-Foulkes estimate   =    -114.40699986 Ry
     estimated scf accuracy    <       0.00123839 Ry

     total magnetization       =     1.00 Bohr mag/cell
     absolute magnetization    =     1.56 Bohr mag/cell

     iteration # 22     ecut=    80.00 Ry     beta=0.70
     CG style diagonalization
     ethr =  2.46E-06,  avg # of iterations =  3.3

     negative rho (up, down):  2.732E-08 3.479E-05
 
     Magnetic moment per site:
     atom:    1    charge:    0.8462    magn:   -0.0079    constr:    0.0000
     atom:    2    charge:    0.8451    magn:   -0.0074    constr:    0.0000
     atom:    3    charge:    0.8417    magn:   -0.0144    constr:    0.0000
     atom:    4    charge:    0.8440    magn:   -0.0134    constr:    0.0000
     atom:    5    charge:    0.8422    magn:   -0.0116    constr:    0.0000
     atom:    6    charge:    0.8422    magn:   -0.0153    constr:    0.0000
     atom:    7    charge:    0.4995    magn:    0.0008    constr:    0.0000
     atom:    8    charge:    0.4983    magn:    0.0011    constr:    0.0000
     atom:    9    charge:    0.4964    magn:    0.0027    constr:    0.0000
     atom:   10    charge:    0.4976    magn:    0.0016    constr:    0.0000
     atom:   11    charge:    0.4964    magn:    0.0015    constr:    0.0000
     atom:   12    charge:    0.4965    magn:    0.0027    constr:    0.0000
     atom:   13    charge:    5.8114    magn:    1.1897    constr:    0.0000

     total cpu time spent up to now is       97.4 secs

     The total energy is the sum of the following terms:

     one-electron contribution =    -702.92169460 Ry
     hartree contribution      =     350.86864840 Ry
     xc contribution           =     -30.74918243 Ry
     ewald contribution        =     268.46058250 Ry

     total energy              =    -114.40561397 Ry
     Harris-Foulkes estimate   =    -114.40719095 Ry
     estimated scf accuracy    <       0.00174841 Ry

     total magnetization       =     1.00 Bohr mag/cell
     absolute magnetization    =     1.56 Bohr mag/cell

     iteration # 23     ecut=    80.00 Ry     beta=0.70
     CG style diagonalization
     ethr =  2.46E-06,  avg # of iterations =  3.1

     negative rho (up, down):  1.810E-11 1.191E-06
 
     Magnetic moment per site:
     atom:    1    charge:    0.8467    magn:   -0.0088    constr:    0.0000
     atom:    2    charge:    0.8451    magn:   -0.0083    constr:    0.0000
     atom:    3    charge:    0.8425    magn:   -0.0090    constr:    0.0000
     atom:    4    charge:    0.8441    magn:   -0.0131    constr:    0.0000
     atom:    5    charge:    0.8431    magn:   -0.0118    constr:    0.0000
     atom:    6    charge:    0.8439    magn:   -0.0096    constr:    0.0000
     atom:    7    charge:    0.4993    magn:    0.0005    constr:    0.0000
     atom:    8    charge:    0.4980    magn:    0.0006    constr:    0.0000
     atom:    9    charge:    0.4960    magn:    0.0009    constr:    0.0000
     atom:   10    charge:    0.4970    magn:    0.0007    constr:    0.0000
     atom:   11    charge:    0.4958    magn:    0.0007    constr:    0.0000
     atom:   12    charge:    0.4961    magn:    0.0009    constr:    0.0000
     atom:   13    charge:    5.8100    magn:    1.1884    constr:    0.0000

     total cpu time spent up to now is      100.5 secs

     The total energy is the sum of the following terms:

     one-electron contribution =    -702.97071992 Ry
     hartree contribution      =     350.90981153 Ry
     xc contribution           =     -30.74220386 Ry
     ewald contribution        =     268.46058250 Ry

     total energy              =    -114.40638411 Ry
     Harris-Foulkes estimate   =    -114.40606755 Ry
     estimated scf accuracy    <       0.00150967 Ry

     total magnetization       =     1.00 Bohr mag/cell
     absolute magnetization    =     1.58 Bohr mag/cell

     iteration # 24     ecut=    80.00 Ry     beta=0.70
     CG style diagonalization
     ethr =  2.46E-06,  avg # of iterations =  3.5

     negative rho (up, down):  1.122E-08 6.978E-05
 
     Magnetic moment per site:
     atom:    1    charge:    0.8463    magn:   -0.0096    constr:    0.0000
     atom:    2    charge:    0.8453    magn:   -0.0091    constr:    0.0000
     atom:    3    charge:    0.8415    magn:   -0.0081    constr:    0.0000
     atom:    4    charge:    0.8450    magn:   -0.0133    constr:    0.0000
     atom:    5    charge:    0.8431    magn:   -0.0114    constr:    0.0000
     atom:    6    charge:    0.8419    magn:   -0.0089    constr:    0.0000
     atom:    7    charge:    0.4993    magn:    0.0008    constr:    0.0000
     atom:    8    charge:    0.4982    magn:    0.0010    constr:    0.0000
     atom:    9    charge:    0.4962    magn:    0.0019    constr:    0.0000
     atom:   10    charge:    0.4972    magn:    0.0011    constr:    0.0000
     atom:   11    charge:    0.4960    magn:    0.0011    constr:    0.0000
     atom:   12    charge:    0.4962    magn:    0.0019    constr:    0.0000
     atom:   13    charge:    5.8158    magn:    1.1639    constr:    0.0000

     total cpu time spent up to now is      103.8 secs

     The total energy is the sum of the following terms:

     one-electron contribution =    -702.90987272 Ry
     hartree contribution      =     350.87609159 Ry
     xc contribution           =     -30.75923046 Ry
     ewald contribution        =     268.46058250 Ry

     total energy              =    -114.39493560 Ry
     Harris-Foulkes estimate   =    -114.40845069 Ry
     estimated scf accuracy    <       0.00167538 Ry

     total magnetization       =     1.00 Bohr mag/cell
     absolute magnetization    =     1.55 Bohr mag/cell

     iteration # 25     ecut=    80.00 Ry     beta=0.70
     CG style diagonalization
     ethr =  2.46E-06,  avg # of iterations =  3.9
 
     Magnetic moment per site:
     atom:    1    charge:    0.8453    magn:   -0.0111    constr:    0.0000
     atom:    2    charge:    0.8446    magn:   -0.0104    constr:    0.0000
     atom:    3    charge:    0.8436    magn:   -0.0024    constr:    0.0000
     atom:    4    charge:    0.8450    magn:   -0.0140    constr:    0.0000
     atom:    5    charge:    0.8430    magn:   -0.0126    constr:    0.0000
     atom:    6    charge:    0.8435    magn:   -0.0028    constr:    0.0000
     atom:    7    charge:    0.4993    magn:    0.0004    constr:    0.0000
     atom:    8    charge:    0.4980    magn:    0.0005    constr:    0.0000
     atom:    9    charge:    0.4961    magn:   -0.0001    constr:    0.0000
     atom:   10    charge:    0.4968    magn:    0.0004    constr:    0.0000
     atom:   11    charge:    0.4955    magn:    0.0004    constr:    0.0000
     atom:   12    charge:    0.4963    magn:   -0.0001    constr:    0.0000
     atom:   13    charge:    5.8124    magn:    1.1746    constr:    0.0000

     total cpu time spent up to now is      107.3 secs

     The total energy is the sum of the following terms:

     one-electron contribution =    -702.98656484 Ry
     hartree contribution      =     350.86548784 Ry
     xc contribution           =     -30.73416227 Ry
     ewald contribution        =     268.46058250 Ry

     total energy              =    -114.40137082 Ry
     Harris-Foulkes estimate   =    -114.40394605 Ry
     estimated scf accuracy    <       0.00179213 Ry

     total magnetization       =     1.00 Bohr mag/cell
     absolute magnetization    =     1.62 Bohr mag/cell

     iteration # 26     ecut=    80.00 Ry     beta=0.70
     CG style diagonalization
     ethr =  2.46E-06,  avg # of iterations =  3.8

     negative rho (up, down):  3.581E-11 4.955E-06
 
     Magnetic moment per site:
     atom:    1    charge:    0.8464    magn:   -0.0139    constr:    0.0000
     atom:    2    charge:    0.8458    magn:   -0.0130    constr:    0.0000
     atom:    3    charge:    0.8424    magn:    0.0014    constr:    0.0000
     atom:    4    charge:    0.8448    magn:   -0.0160    constr:    0.0000
     atom:    5    charge:    0.8436    magn:   -0.0140    constr:    0.0000
     atom:    6    charge:    0.8422    magn:    0.0008    constr:    0.0000
     atom:    7    charge:    0.4992    magn:    0.0006    constr:    0.0000
     atom:    8    charge:    0.4980    magn:    0.0007    constr:    0.0000
     atom:    9    charge:    0.4962    magn:    0.0000    constr:    0.0000
     atom:   10    charge:    0.4967    magn:    0.0006    constr:    0.0000
     atom:   11    charge:    0.4955    magn:    0.0006    constr:    0.0000
     atom:   12    charge:    0.4962    magn:    0.0000    constr:    0.0000
     atom:   13    charge:    5.8131    magn:    1.1767    constr:    0.0000

     total cpu time spent up to now is      110.8 secs

     The total energy is the sum of the following terms:

     one-electron contribution =    -703.04194641 Ry
     hartree contribution      =     350.90503498 Ry
     xc contribution           =     -30.75123214 Ry
     ewald contribution        =     268.46058250 Ry

     total energy              =    -114.40254275 Ry
     Harris-Foulkes estimate   =    -114.40802703 Ry
     estimated scf accuracy    <       0.00095086 Ry

     total magnetization       =     1.00 Bohr mag/cell
     absolute magnetization    =     1.60 Bohr mag/cell

     iteration # 27     ecut=    80.00 Ry     beta=0.70
     CG style diagonalization
     ethr =  2.46E-06,  avg # of iterations =  3.6

     negative rho (up, down):  2.676E-14 1.234E-07
 
     Magnetic moment per site:
     atom:    1    charge:    0.8468    magn:   -0.0144    constr:    0.0000
     atom:    2    charge:    0.8458    magn:   -0.0134    constr:    0.0000
     atom:    3    charge:    0.8426    magn:    0.0002    constr:    0.0000
     atom:    4    charge:    0.8448    magn:   -0.0174    constr:    0.0000
     atom:    5    charge:    0.8435    magn:   -0.0152    constr:    0.0000
     atom:    6    charge:    0.8425    magn:   -0.0004    constr:    0.0000
     atom:    7    charge:    0.4989    magn:    0.0007    constr:    0.0000
     atom:    8    charge:    0.4978    magn:    0.0008    constr:    0.0000
     atom:    9    charge:    0.4962    magn:    0.0004    constr:    0.0000
     atom:   10    charge:    0.4969    magn:    0.0009    constr:    0.0000
     atom:   11    charge:    0.4956    magn:    0.0009    constr:    0.0000
     atom:   12    charge:    0.4963    magn:    0.0004    constr:    0.0000
     atom:   13    charge:    5.8108    magn:    1.1932    constr:    0.0000

     total cpu time spent up to now is      114.1 secs

     The total energy is the sum of the following terms:

     one-electron contribution =    -702.94326166 Ry
     hartree contribution      =     350.93561397 Ry
     xc contribution           =     -30.74784464 Ry
     ewald contribution        =     268.46058250 Ry

     total energy              =    -114.40548942 Ry
     Harris-Foulkes estimate   =    -114.40576761 Ry
     estimated scf accuracy    <       0.00097993 Ry

     total magnetization       =     1.00 Bohr mag/cell
     absolute magnetization    =     1.60 Bohr mag/cell

     iteration # 28     ecut=    80.00 Ry     beta=0.70
     CG style diagonalization
     ethr =  2.46E-06,  avg # of iterations =  3.4
 
     Magnetic moment per site:
     atom:    1    charge:    0.8461    magn:   -0.0134    constr:    0.0000
     atom:    2    charge:    0.8452    magn:   -0.0124    constr:    0.0000
     atom:    3    charge:    0.8437    magn:   -0.0005    constr:    0.0000
     atom:    4    charge:    0.8439    magn:   -0.0168    constr:    0.0000
     atom:    5    charge:    0.8432    magn:   -0.0146    constr:    0.0000
     atom:    6    charge:    0.8435    magn:   -0.0012    constr:    0.0000
     atom:    7    charge:    0.4990    magn:    0.0008    constr:    0.0000
     atom:    8    charge:    0.4978    magn:    0.0009    constr:    0.0000
     atom:    9    charge:    0.4963    magn:    0.0005    constr:    0.0000
     atom:   10    charge:    0.4969    magn:    0.0010    constr:    0.0000
     atom:   11    charge:    0.4956    magn:    0.0009    constr:    0.0000
     atom:   12    charge:    0.4964    magn:    0.0005    constr:    0.0000
     atom:   13    charge:    5.8104    magn:    1.1808    constr:    0.0000

     total cpu time spent up to now is      117.3 secs

     The total energy is the sum of the following terms:

     one-electron contribution =    -702.92409174 Ry
     hartree contribution      =     350.93836095 Ry
     xc contribution           =     -30.74505438 Ry
     ewald contribution        =     268.46058250 Ry

     total energy              =    -114.40759899 Ry
     Harris-Foulkes estimate   =    -114.40755640 Ry
     estimated scf accuracy    <       0.00102825 Ry

     total magnetization       =     1.00 Bohr mag/cell
     absolute magnetization    =     1.59 Bohr mag/cell

     iteration # 29     ecut=    80.00 Ry     beta=0.70
     CG style diagonalization
     ethr =  2.46E-06,  avg # of iterations =  3.3

     negative rho (up, down):  1.658E-06 7.481E-05
 
     Magnetic moment per site:
     atom:    1    charge:    0.8445    magn:   -0.0116    constr:    0.0000
     atom:    2    charge:    0.8439    magn:   -0.0105    constr:    0.0000
     atom:    3    charge:    0.8443    magn:   -0.0023    constr:    0.0000
     atom:    4    charge:    0.8437    magn:   -0.0160    constr:    0.0000
     atom:    5    charge:    0.8434    magn:   -0.0138    constr:    0.0000
     atom:    6    charge:    0.8442    magn:   -0.0029    constr:    0.0000
     atom:    7    charge:    0.4993    magn:    0.0009    constr:    0.0000
     atom:    8    charge:    0.4981    magn:    0.0009    constr:    0.0000
     atom:    9    charge:    0.4964    magn:    0.0005    constr:    0.0000
     atom:   10    charge:    0.4970    magn:    0.0012    constr:    0.0000
     atom:   11    charge:    0.4958    magn:    0.0010    constr:    0.0000
     atom:   12    charge:    0.4964    magn:    0.0006    constr:    0.0000
     atom:   13    charge:    5.8110    magn:    1.1587    constr:    0.0000

     total cpu time spent up to now is      120.5 secs

     The total energy is the sum of the following terms:

     one-electron contribution =    -702.93485566 Ry
     hartree contribution      =     350.94880200 Ry
     xc contribution           =     -30.76135696 Ry
     ewald contribution        =     268.46058250 Ry

     total energy              =    -114.40302008 Ry
     Harris-Foulkes estimate   =    -114.40889841 Ry
     estimated scf accuracy    <       0.00088535 Ry

     total magnetization       =     1.00 Bohr mag/cell
     absolute magnetization    =     1.58 Bohr mag/cell

     iteration # 30     ecut=    80.00 Ry     beta=0.70
     CG style diagonalization
     ethr =  2.39E-06,  avg # of iterations =  3.9

     negative rho (up, down):  0.000E+00 2.309E-05
 
     Magnetic moment per site:
     atom:    1    charge:    0.8447    magn:   -0.0079    constr:    0.0000
     atom:    2    charge:    0.8441    magn:   -0.0073    constr:    0.0000
     atom:    3    charge:    0.8448    magn:   -0.0065    constr:    0.0000
     atom:    4    charge:    0.8436    magn:   -0.0125    constr:    0.0000
     atom:    5    charge:    0.8430    magn:   -0.0113    constr:    0.0000
     atom:    6    charge:    0.8444    magn:   -0.0069    constr:    0.0000
     atom:    7    charge:    0.4993    magn:    0.0006    constr:    0.0000
     atom:    8    charge:    0.4981    magn:    0.0006    constr:    0.0000
     atom:    9    charge:    0.4961    magn:    0.0004    constr:    0.0000
     atom:   10    charge:    0.4969    magn:    0.0007    constr:    0.0000
     atom:   11    charge:    0.4957    magn:    0.0007    constr:    0.0000
     atom:   12    charge:    0.4962    magn:    0.0004    constr:    0.0000
     atom:   13    charge:    5.8122    magn:    1.1461    constr:    0.0000

     total cpu time spent up to now is      124.0 secs

     The total energy is the sum of the following terms:

     one-electron contribution =    -703.01071966 Ry
     hartree contribution      =     350.93000866 Ry
     xc contribution           =     -30.75624402 Ry
     ewald contribution        =     268.46058250 Ry

     total energy              =    -114.41097522 Ry
     Harris-Foulkes estimate   =    -114.41069997 Ry
     estimated scf accuracy    <       0.00179671 Ry

     total magnetization       =     1.00 Bohr mag/cell
     absolute magnetization    =     1.58 Bohr mag/cell

     iteration # 31     ecut=    80.00 Ry     beta=0.70
     CG style diagonalization
     ethr =  2.39E-06,  avg # of iterations =  3.2

     negative rho (up, down):  0.000E+00 2.871E-05
 
     Magnetic moment per site:
     atom:    1    charge:    0.8444    magn:   -0.0057    constr:    0.0000
     atom:    2    charge:    0.8438    magn:   -0.0054    constr:    0.0000
     atom:    3    charge:    0.8451    magn:   -0.0091    constr:    0.0000
     atom:    4    charge:    0.8436    magn:   -0.0105    constr:    0.0000
     atom:    5    charge:    0.8433    magn:   -0.0100    constr:    0.0000
     atom:    6    charge:    0.8448    magn:   -0.0091    constr:    0.0000
     atom:    7    charge:    0.4992    magn:    0.0003    constr:    0.0000
     atom:    8    charge:    0.4980    magn:    0.0003    constr:    0.0000
     atom:    9    charge:    0.4960    magn:    0.0003    constr:    0.0000
     atom:   10    charge:    0.4969    magn:    0.0005    constr:    0.0000
     atom:   11    charge:    0.4957    magn:    0.0004    constr:    0.0000
     atom:   12    charge:    0.4960    magn:    0.0003    constr:    0.0000
     atom:   13    charge:    5.8122    magn:    1.1414    constr:    0.0000

     total cpu time spent up to now is      127.2 secs

     The total energy is the sum of the following terms:

     one-electron contribution =    -703.01379601 Ry
     hartree contribution      =     350.92459488 Ry
     xc contribution           =     -30.75729060 Ry
     ewald contribution        =     268.46058250 Ry

     total energy              =    -114.41127554 Ry
     Harris-Foulkes estimate   =    -114.41137503 Ry
     estimated scf accuracy    <       0.00118817 Ry

     total magnetization       =     1.00 Bohr mag/cell
     absolute magnetization    =     1.57 Bohr mag/cell

     iteration # 32     ecut=    80.00 Ry     beta=0.70
     CG style diagonalization
     ethr =  2.39E-06,  avg # of iterations =  3.1

     negative rho (up, down):  0.000E+00 3.244E-05
 
     Magnetic moment per site:
     atom:    1    charge:    0.8445    magn:   -0.0051    constr:    0.0000
     atom:    2    charge:    0.8437    magn:   -0.0048    constr:    0.0000
     atom:    3    charge:    0.8450    magn:   -0.0103    constr:    0.0000
     atom:    4    charge:    0.8435    magn:   -0.0101    constr:    0.0000
     atom:    5    charge:    0.8433    magn:   -0.0097    constr:    0.0000
     atom:    6    charge:    0.8450    magn:   -0.0104    constr:    0.0000
     atom:    7    charge:    0.4992    magn:    0.0003    constr:    0.0000
     atom:    8    charge:    0.4980    magn:    0.0003    constr:    0.0000
     atom:    9    charge:    0.4960    magn:    0.0004    constr:    0.0000
     atom:   10    charge:    0.4969    magn:    0.0005    constr:    0.0000
     atom:   11    charge:    0.4957    magn:    0.0005    constr:    0.0000
     atom:   12    charge:    0.4960    magn:    0.0004    constr:    0.0000
     atom:   13    charge:    5.8133    magn:    1.1416    constr:    0.0000

     total cpu time spent up to now is      130.3 secs

     The total energy is the sum of the following terms:

     one-electron contribution =    -703.00160010 Ry
     hartree contribution      =     350.92801893 Ry
     xc contribution           =     -30.75843936 Ry
     ewald contribution        =     268.46058250 Ry

     total energy              =    -114.41165360 Ry
     Harris-Foulkes estimate   =    -114.41168028 Ry
     estimated scf accuracy    <       0.00118241 Ry

     total magnetization       =     1.00 Bohr mag/cell
     absolute magnetization    =     1.56 Bohr mag/cell

     iteration # 33     ecut=    80.00 Ry     beta=0.70
     CG style diagonalization
     ethr =  2.39E-06,  avg # of iterations =  3.0

     negative rho (up, down):  0.000E+00 9.489E-06
 
     Magnetic moment per site:
     atom:    1    charge:    0.8446    magn:   -0.0054    constr:    0.0000
     atom:    2    charge:    0.8439    magn:   -0.0052    constr:    0.0000
     atom:    3    charge:    0.8449    magn:   -0.0098    constr:    0.0000
     atom:    4    charge:    0.8437    magn:   -0.0103    constr:    0.0000
     atom:    5    charge:    0.8430    magn:   -0.0100    constr:    0.0000
     atom:    6    charge:    0.8448    magn:   -0.0099    constr:    0.0000
     atom:    7    charge:    0.4992    magn:    0.0003    constr:    0.0000
     atom:    8    charge:    0.4979    magn:    0.0003    constr:    0.0000
     atom:    9    charge:    0.4961    magn:    0.0003    constr:    0.0000
     atom:   10    charge:    0.4970    magn:    0.0004    constr:    0.0000
     atom:   11    charge:    0.4957    magn:    0.0004    constr:    0.0000
     atom:   12    charge:    0.4961    magn:    0.0003    constr:    0.0000
     atom:   13    charge:    5.8117    magn:    1.1466    constr:    0.0000

     total cpu time spent up to now is      133.3 secs

     The total energy is the sum of the following terms:

     one-electron contribution =    -703.02866598 Ry
     hartree contribution      =     350.91994699 Ry
     xc contribution           =     -30.75296025 Ry
     ewald contribution        =     268.46058250 Ry

     total energy              =    -114.41175430 Ry
     Harris-Foulkes estimate   =    -114.41167029 Ry
     estimated scf accuracy    <       0.00136377 Ry

     total magnetization       =     1.00 Bohr mag/cell
     absolute magnetization    =     1.58 Bohr mag/cell

     iteration # 34     ecut=    80.00 Ry     beta=0.70
     CG style diagonalization
     ethr =  2.39E-06,  avg # of iterations =  3.1

     negative rho (up, down):  0.000E+00 3.549E-06
 
     Magnetic moment per site:
     atom:    1    charge:    0.8446    magn:   -0.0060    constr:    0.0000
     atom:    2    charge:    0.8439    magn:   -0.0057    constr:    0.0000
     atom:    3    charge:    0.8448    magn:   -0.0091    constr:    0.0000
     atom:    4    charge:    0.8438    magn:   -0.0109    constr:    0.0000
     atom:    5    charge:    0.8430    magn:   -0.0103    constr:    0.0000
     atom:    6    charge:    0.8448    magn:   -0.0093    constr:    0.0000
     atom:    7    charge:    0.4992    magn:    0.0004    constr:    0.0000
     atom:    8    charge:    0.4980    magn:    0.0004    constr:    0.0000
     atom:    9    charge:    0.4961    magn:    0.0004    constr:    0.0000
     atom:   10    charge:    0.4970    magn:    0.0005    constr:    0.0000
     atom:   11    charge:    0.4957    magn:    0.0005    constr:    0.0000
     atom:   12    charge:    0.4961    magn:    0.0004    constr:    0.0000
     atom:   13    charge:    5.8117    magn:    1.1467    constr:    0.0000

     total cpu time spent up to now is      136.3 secs

     The total energy is the sum of the following terms:

     one-electron contribution =    -702.98954210 Ry
     hartree contribution      =     350.91639027 Ry
     xc contribution           =     -30.74990368 Ry
     ewald contribution        =     268.46058250 Ry

     total energy              =    -114.41171152 Ry
     Harris-Foulkes estimate   =    -114.41182720 Ry
     estimated scf accuracy    <       0.00080107 Ry

     total magnetization       =     1.00 Bohr mag/cell
     absolute magnetization    =     1.56 Bohr mag/cell

     iteration # 35     ecut=    80.00 Ry     beta=0.70
     CG style diagonalization
     ethr =  2.17E-06,  avg # of iterations =  3.1
 
     Magnetic moment per site:
     atom:    1    charge:    0.8447    magn:   -0.0073    constr:    0.0000
     atom:    2    charge:    0.8438    magn:   -0.0068    constr:    0.0000
     atom:    3    charge:    0.8442    magn:   -0.0068    constr:    0.0000
     atom:    4    charge:    0.8443    magn:   -0.0116    constr:    0.0000
     atom:    5    charge:    0.8426    magn:   -0.0105    constr:    0.0000
     atom:    6    charge:    0.8444    magn:   -0.0071    constr:    0.0000
     atom:    7    charge:    0.4992    magn:    0.0004    constr:    0.0000
     atom:    8    charge:    0.4980    magn:    0.0004    constr:    0.0000
     atom:    9    charge:    0.4961    magn:    0.0002    constr:    0.0000
     atom:   10    charge:    0.4970    magn:    0.0005    constr:    0.0000
     atom:   11    charge:    0.4956    magn:    0.0005    constr:    0.0000
     atom:   12    charge:    0.4961    magn:    0.0002    constr:    0.0000
     atom:   13    charge:    5.8139    magn:    1.1410    constr:    0.0000

     total cpu time spent up to now is      139.4 secs

     The total energy is the sum of the following terms:

     one-electron contribution =    -702.99201372 Ry
     hartree contribution      =     350.87066841 Ry
     xc contribution           =     -30.73406953 Ry
     ewald contribution        =     268.46058250 Ry

     total energy              =    -114.41025049 Ry
     Harris-Foulkes estimate   =    -114.41178567 Ry
     estimated scf accuracy    <       0.00065718 Ry

     total magnetization       =     1.00 Bohr mag/cell
     absolute magnetization    =     1.56 Bohr mag/cell

     iteration # 36     ecut=    80.00 Ry     beta=0.70
     CG style diagonalization
     ethr =  1.78E-06,  avg # of iterations =  3.4
 
     Magnetic moment per site:
     atom:    1    charge:    0.8453    magn:   -0.0089    constr:    0.0000
     atom:    2    charge:    0.8442    magn:   -0.0083    constr:    0.0000
     atom:    3    charge:    0.8438    magn:   -0.0045    constr:    0.0000
     atom:    4    charge:    0.8441    magn:   -0.0130    constr:    0.0000
     atom:    5    charge:    0.8427    magn:   -0.0118    constr:    0.0000
     atom:    6    charge:    0.8443    magn:   -0.0049    constr:    0.0000
     atom:    7    charge:    0.4992    magn:    0.0005    constr:    0.0000
     atom:    8    charge:    0.4980    magn:    0.0005    constr:    0.0000
     atom:    9    charge:    0.4962    magn:    0.0001    constr:    0.0000
     atom:   10    charge:    0.4970    magn:    0.0005    constr:    0.0000
     atom:   11    charge:    0.4957    magn:    0.0005    constr:    0.0000
     atom:   12    charge:    0.4962    magn:    0.0000    constr:    0.0000
     atom:   13    charge:    5.8103    magn:    1.1551    constr:    0.0000

     total cpu time spent up to now is      142.6 secs

     The total energy is the sum of the following terms:

     one-electron contribution =    -703.11373977 Ry
     hartree contribution      =     350.88286830 Ry
     xc contribution           =     -30.73164744 Ry
     ewald contribution        =     268.46058250 Ry

     total energy              =    -114.41000049 Ry
     Harris-Foulkes estimate   =    -114.41120099 Ry
     estimated scf accuracy    <       0.00105839 Ry

     total magnetization       =     1.00 Bohr mag/cell
     absolute magnetization    =     1.61 Bohr mag/cell

     iteration # 37     ecut=    80.00 Ry     beta=0.70
     CG style diagonalization
     ethr =  1.78E-06,  avg # of iterations =  3.2
 
     Magnetic moment per site:
     atom:    1    charge:    0.8447    magn:   -0.0071    constr:    0.0000
     atom:    2    charge:    0.8439    magn:   -0.0067    constr:    0.0000
     atom:    3    charge:    0.8448    magn:   -0.0056    constr:    0.0000
     atom:    4    charge:    0.8438    magn:   -0.0112    constr:    0.0000
     atom:    5    charge:    0.8430    magn:   -0.0107    constr:    0.0000
     atom:    6    charge:    0.8449    magn:   -0.0057    constr:    0.0000
     atom:    7    charge:    0.4991    magn:    0.0004    constr:    0.0000
     atom:    8    charge:    0.4979    magn:    0.0004    constr:    0.0000
     atom:    9    charge:    0.4961    magn:   -0.0001    constr:    0.0000
     atom:   10    charge:    0.4969    magn:    0.0004    constr:    0.0000
     atom:   11    charge:    0.4956    magn:    0.0004    constr:    0.0000
     atom:   12    charge:    0.4960    magn:   -0.0001    constr:    0.0000
     atom:   13    charge:    5.8123    magn:    1.1332    constr:    0.0000

     total cpu time spent up to now is      145.6 secs

     The total energy is the sum of the following terms:

     one-electron contribution =    -702.99228427 Ry
     hartree contribution      =     350.89212352 Ry
     xc contribution           =     -30.73607499 Ry
     ewald contribution        =     268.46058250 Ry

     total energy              =    -114.41000128 Ry
     Harris-Foulkes estimate   =    -114.41043698 Ry
     estimated scf accuracy    <       0.00154217 Ry

     total magnetization       =     1.00 Bohr mag/cell
     absolute magnetization    =     1.56 Bohr mag/cell

     iteration # 38     ecut=    80.00 Ry     beta=0.70
     CG style diagonalization
     ethr =  1.78E-06,  avg # of iterations =  3.3
 
     Magnetic moment per site:
     atom:    1    charge:    0.8446    magn:   -0.0068    constr:    0.0000
     atom:    2    charge:    0.8438    magn:   -0.0065    constr:    0.0000
     atom:    3    charge:    0.8450    magn:   -0.0057    constr:    0.0000
     atom:    4    charge:    0.8438    magn:   -0.0110    constr:    0.0000
     atom:    5    charge:    0.8431    magn:   -0.0106    constr:    0.0000
     atom:    6    charge:    0.8450    magn:   -0.0058    constr:    0.0000
     atom:    7    charge:    0.4991    magn:    0.0004    constr:    0.0000
     atom:    8    charge:    0.4979    magn:    0.0004    constr:    0.0000
     atom:    9    charge:    0.4960    magn:   -0.0002    constr:    0.0000
     atom:   10    charge:    0.4969    magn:    0.0004    constr:    0.0000
     atom:   11    charge:    0.4956    magn:    0.0004    constr:    0.0000
     atom:   12    charge:    0.4960    magn:   -0.0002    constr:    0.0000
     atom:   13    charge:    5.8125    magn:    1.1303    constr:    0.0000

     total cpu time spent up to now is      148.8 secs

     The total energy is the sum of the following terms:

     one-electron contribution =    -703.02305940 Ry
     hartree contribution      =     350.89314404 Ry
     xc contribution           =     -30.73734235 Ry
     ewald contribution        =     268.46058250 Ry

     total energy              =    -114.41203816 Ry
     Harris-Foulkes estimate   =    -114.41189271 Ry
     estimated scf accuracy    <       0.00063435 Ry

     total magnetization       =     1.00 Bohr mag/cell
     absolute magnetization    =     1.57 Bohr mag/cell

     iteration # 39     ecut=    80.00 Ry     beta=0.70
     CG style diagonalization
     ethr =  1.71E-06,  avg # of iterations =  3.1
 
     Magnetic moment per site:
     atom:    1    charge:    0.8449    magn:   -0.0072    constr:    0.0000
     atom:    2    charge:    0.8441    magn:   -0.0069    constr:    0.0000
[...]
     xc contribution           =     -30.74245199 Ry
     ewald contribution        =     268.46058250 Ry

     total magnetization       =     1.00 Bohr mag/cell
     absolute magnetization    =     1.57 Bohr mag/cell

     convergence has been achieved in   7 iterations
 
     Using Hirshfeld
        Amplitude [Ry a.u.] : -3.8879E-01
        Acceptor Fragment start :          13
        Acceptor Fragment end   :          13
        Donor Fragment start :           1
        Donor Fragment end   :          12
 
 
     Using Hirshfeld
        Amplitude [Ry a.u.] : -3.8879E-01
        Acceptor Fragment start :          13
        Acceptor Fragment end   :          13
        Donor Fragment start :           1
        Donor Fragment end   :          12
 
     E field correction              :  0.9330214148263993E+01 Ry    
 
     Donor charge                    :     -0.3477329899207966 e     
     Acceptor charge                 :      0.6503486177954132 e     
     Difference of charges           :     -0.9980816077162125 e     
 
     epcdft_thr                      :  0.1000000000000000E-03 e     
     Surplus(+)/deficit(-) charge    :  0.1918392283787540E-02 e     
 
     -----------------------------------------------
 
                      SCF converged but...
 
     electron localization condition NOT satisfied
     restarting scf with different applied potential
 
     New field Amp                   : -0.3891276810030982E+00 Ry    
     charge density from previous step
 
     Using Hirshfeld
        Amplitude [Ry a.u.] : -3.8913E-01
        Acceptor Fragment start :          13
        Acceptor Fragment end   :          13
        Donor Fragment start :           1
        Donor Fragment end   :          12
 

     total cpu time spent up to now is      264.5 secs

     per-process dynamical memory:    53.0 Mb

     Self-consistent Calculation

     iteration #  1     ecut=    80.00 Ry     beta=0.70
     CG style diagonalization
     ethr =  1.16E-10,  avg # of iterations =  7.0
 
     Magnetic moment per site:
     atom:    1    charge:    0.8450    magn:   -0.0042    constr:    0.0000
     atom:    2    charge:    0.8441    magn:   -0.0042    constr:    0.0000
     atom:    3    charge:    0.8450    magn:   -0.0106    constr:    0.0000
     atom:    4    charge:    0.8441    magn:   -0.0100    constr:    0.0000
     atom:    5    charge:    0.8433    magn:   -0.0100    constr:    0.0000
     atom:    6    charge:    0.8450    magn:   -0.0106    constr:    0.0000
     atom:    7    charge:    0.4989    magn:    0.0002    constr:    0.0000
     atom:    8    charge:    0.4976    magn:    0.0002    constr:    0.0000
     atom:    9    charge:    0.4960    magn:    0.0004    constr:    0.0000
     atom:   10    charge:    0.4970    magn:    0.0004    constr:    0.0000
     atom:   11    charge:    0.4957    magn:    0.0004    constr:    0.0000
     atom:   12    charge:    0.4960    magn:    0.0004    constr:    0.0000
     atom:   13    charge:    5.8006    magn:    1.1399    constr:    0.0000

     total cpu time spent up to now is      270.5 secs

     The total energy is the sum of the following terms:

     one-electron contribution =    -703.05241839 Ry
     hartree contribution      =     350.88124298 Ry
     xc contribution           =     -30.74190759 Ry
     ewald contribution        =     268.46058250 Ry

     total energy              =    -114.44539109 Ry
     Harris-Foulkes estimate   =    -114.44541760 Ry
     estimated scf accuracy    <       0.00003304 Ry

     total magnetization       =     1.00 Bohr mag/cell
     absolute magnetization    =     1.59 Bohr mag/cell

     iteration #  2     ecut=    80.00 Ry     beta=0.70
     CG style diagonalization
     ethr =  8.93E-08,  avg # of iterations =  4.1
 
     Magnetic moment per site:
     atom:    1    charge:    0.8448    magn:   -0.0041    constr:    0.0000
     atom:    2    charge:    0.8440    magn:   -0.0041    constr:    0.0000
     atom:    3    charge:    0.8448    magn:   -0.0105    constr:    0.0000
     atom:    4    charge:    0.8440    magn:   -0.0099    constr:    0.0000
     atom:    5    charge:    0.8432    magn:   -0.0099    constr:    0.0000
     atom:    6    charge:    0.8448    magn:   -0.0105    constr:    0.0000
     atom:    7    charge:    0.4989    magn:    0.0002    constr:    0.0000
     atom:    8    charge:    0.4976    magn:    0.0002    constr:    0.0000
     atom:    9    charge:    0.4960    magn:    0.0004    constr:    0.0000
     atom:   10    charge:    0.4970    magn:    0.0004    constr:    0.0000
     atom:   11    charge:    0.4957    magn:    0.0004    constr:    0.0000
     atom:   12    charge:    0.4960    magn:    0.0004    constr:    0.0000
     atom:   13    charge:    5.8050    magn:    1.1368    constr:    0.0000

     total cpu time spent up to now is      274.0 secs

     The total energy is the sum of the following terms:

     one-electron contribution =    -702.86620213 Ry
     hartree contribution      =     350.86641004 Ry
     xc contribution           =     -30.74233164 Ry
     ewald contribution        =     268.46058250 Ry

     total energy              =    -114.44530026 Ry
     Harris-Foulkes estimate   =    -114.44555032 Ry
     estimated scf accuracy    <       0.00171759 Ry

     total magnetization       =     1.00 Bohr mag/cell
     absolute magnetization    =     1.50 Bohr mag/cell

     iteration #  3     ecut=    80.00 Ry     beta=0.70
     CG style diagonalization
     ethr =  8.93E-08,  avg # of iterations =  4.0
 
     Magnetic moment per site:
     atom:    1    charge:    0.8448    magn:   -0.0041    constr:    0.0000
     atom:    2    charge:    0.8440    magn:   -0.0041    constr:    0.0000
     atom:    3    charge:    0.8448    magn:   -0.0105    constr:    0.0000
     atom:    4    charge:    0.8440    magn:   -0.0099    constr:    0.0000
     atom:    5    charge:    0.8432    magn:   -0.0099    constr:    0.0000
     atom:    6    charge:    0.8448    magn:   -0.0105    constr:    0.0000
     atom:    7    charge:    0.4989    magn:    0.0002    constr:    0.0000
     atom:    8    charge:    0.4976    magn:    0.0002    constr:    0.0000
     atom:    9    charge:    0.4960    magn:    0.0004    constr:    0.0000
     atom:   10    charge:    0.4970    magn:    0.0004    constr:    0.0000
     atom:   11    charge:    0.4957    magn:    0.0004    constr:    0.0000
     atom:   12    charge:    0.4960    magn:    0.0004    constr:    0.0000
     atom:   13    charge:    5.8050    magn:    1.1369    constr:    0.0000

     total cpu time spent up to now is      277.5 secs

     The total energy is the sum of the following terms:

     one-electron contribution =    -703.02523427 Ry
     hartree contribution      =     350.86524086 Ry
     xc contribution           =     -30.74224574 Ry
     ewald contribution        =     268.46058250 Ry

     total energy              =    -114.44541513 Ry
     Harris-Foulkes estimate   =    -114.44541519 Ry
     estimated scf accuracy    <       0.00000032 Ry

     total magnetization       =     1.00 Bohr mag/cell
     absolute magnetization    =     1.58 Bohr mag/cell

     iteration #  4     ecut=    80.00 Ry     beta=0.70
     CG style diagonalization
     ethr =  8.54E-10,  avg # of iterations =  5.2
 
     Magnetic moment per site:
     atom:    1    charge:    0.8448    magn:   -0.0041    constr:    0.0000
     atom:    2    charge:    0.8440    magn:   -0.0041    constr:    0.0000
     atom:    3    charge:    0.8448    magn:   -0.0105    constr:    0.0000
     atom:    4    charge:    0.8440    magn:   -0.0099    constr:    0.0000
     atom:    5    charge:    0.8432    magn:   -0.0099    constr:    0.0000
     atom:    6    charge:    0.8448    magn:   -0.0105    constr:    0.0000
     atom:    7    charge:    0.4989    magn:    0.0002    constr:    0.0000
     atom:    8    charge:    0.4976    magn:    0.0002    constr:    0.0000
     atom:    9    charge:    0.4960    magn:    0.0004    constr:    0.0000
     atom:   10    charge:    0.4970    magn:    0.0004    constr:    0.0000
     atom:   11    charge:    0.4957    magn:    0.0004    constr:    0.0000
     atom:   12    charge:    0.4960    magn:    0.0004    constr:    0.0000
     atom:   13    charge:    5.8050    magn:    1.1370    constr:    0.0000

     total cpu time spent up to now is      281.7 secs

     The total energy is the sum of the following terms:

     one-electron contribution =    -703.03267905 Ry
     hartree contribution      =     350.86628881 Ry
     xc contribution           =     -30.74234224 Ry
     ewald contribution        =     268.46058250 Ry

     total energy              =    -114.44541530 Ry
     Harris-Foulkes estimate   =    -114.44541532 Ry
     estimated scf accuracy    <       0.00000007 Ry

     total magnetization       =     1.00 Bohr mag/cell
     absolute magnetization    =     1.58 Bohr mag/cell

     iteration #  5     ecut=    80.00 Ry     beta=0.70
     CG style diagonalization
     ethr =  1.77E-10,  avg # of iterations =  3.3
 
     Magnetic moment per site:
     atom:    1    charge:    0.8448    magn:   -0.0041    constr:    0.0000
     atom:    2    charge:    0.8440    magn:   -0.0041    constr:    0.0000
     atom:    3    charge:    0.8448    magn:   -0.0105    constr:    0.0000
     atom:    4    charge:    0.8440    magn:   -0.0099    constr:    0.0000
     atom:    5    charge:    0.8432    magn:   -0.0099    constr:    0.0000
     atom:    6    charge:    0.8448    magn:   -0.0105    constr:    0.0000
     atom:    7    charge:    0.4989    magn:    0.0002    constr:    0.0000
     atom:    8    charge:    0.4976    magn:    0.0002    constr:    0.0000
     atom:    9    charge:    0.4960    magn:    0.0004    constr:    0.0000
     atom:   10    charge:    0.4970    magn:    0.0004    constr:    0.0000
     atom:   11    charge:    0.4957    magn:    0.0004    constr:    0.0000
     atom:   12    charge:    0.4960    magn:    0.0004    constr:    0.0000
     atom:   13    charge:    5.8050    magn:    1.1371    constr:    0.0000

     total cpu time spent up to now is      284.7 secs

     The total energy is the sum of the following terms:

     one-electron contribution =    -703.03155391 Ry
     hartree contribution      =     350.86652789 Ry
     xc contribution           =     -30.74236352 Ry
     ewald contribution        =     268.46058250 Ry

     total energy              =    -114.44541530 Ry
     Harris-Foulkes estimate   =    -114.44541531 Ry
     estimated scf accuracy    <       0.00000002 Ry

     total magnetization       =     1.00 Bohr mag/cell
     absolute magnetization    =     1.58 Bohr mag/cell

     iteration #  6     ecut=    80.00 Ry     beta=0.70
     CG style diagonalization
     ethr =  6.60E-11,  avg # of iterations =  3.1
 
     Magnetic moment per site:
     atom:    1    charge:    0.8448    magn:   -0.0041    constr:    0.0000
     atom:    2    charge:    0.8440    magn:   -0.0041    constr:    0.0000
     atom:    3    charge:    0.8448    magn:   -0.0105    constr:    0.0000
     atom:    4    charge:    0.8440    magn:   -0.0099    constr:    0.0000
     atom:    5    charge:    0.8432    magn:   -0.0099    constr:    0.0000
     atom:    6    charge:    0.8448    magn:   -0.0105    constr:    0.0000
     atom:    7    charge:    0.4989    magn:    0.0002    constr:    0.0000
     atom:    8    charge:    0.4976    magn:    0.0002    constr:    0.0000
     atom:    9    charge:    0.4960    magn:    0.0004    constr:    0.0000
     atom:   10    charge:    0.4970    magn:    0.0004    constr:    0.0000
     atom:   11    charge:    0.4957    magn:    0.0004    constr:    0.0000
     atom:   12    charge:    0.4960    magn:    0.0004    constr:    0.0000
     atom:   13    charge:    5.8050    magn:    1.1371    constr:    0.0000

     total cpu time spent up to now is      287.7 secs

     The total energy is the sum of the following terms:

     one-electron contribution =    -703.03103712 Ry
     hartree contribution      =     350.86673406 Ry
     xc contribution           =     -30.74237882 Ry
     ewald contribution        =     268.46058250 Ry

     total energy              =    -114.44541530 Ry
     Harris-Foulkes estimate   =    -114.44541531 Ry
     estimated scf accuracy    <       0.00000001 Ry

     total magnetization       =     1.00 Bohr mag/cell
     absolute magnetization    =     1.58 Bohr mag/cell

     iteration #  7     ecut=    80.00 Ry     beta=0.70
     CG style diagonalization
     ethr =  3.57E-11,  avg # of iterations =  3.3
 
     Magnetic moment per site:
     atom:    1    charge:    0.8448    magn:   -0.0041    constr:    0.0000
     atom:    2    charge:    0.8440    magn:   -0.0041    constr:    0.0000
     atom:    3    charge:    0.8448    magn:   -0.0105    constr:    0.0000
     atom:    4    charge:    0.8440    magn:   -0.0099    constr:    0.0000
     atom:    5    charge:    0.8432    magn:   -0.0099    constr:    0.0000
     atom:    6    charge:    0.8448    magn:   -0.0105    constr:    0.0000
     atom:    7    charge:    0.4989    magn:    0.0002    constr:    0.0000
     atom:    8    charge:    0.4976    magn:    0.0002    constr:    0.0000
     atom:    9    charge:    0.4960    magn:    0.0004    constr:    0.0000
     atom:   10    charge:    0.4970    magn:    0.0004    constr:    0.0000
     atom:   11    charge:    0.4957    magn:    0.0004    constr:    0.0000
     atom:   12    charge:    0.4960    magn:    0.0004    constr:    0.0000
     atom:   13    charge:    5.8050    magn:    1.1371    constr:    0.0000

     total cpu time spent up to now is      290.8 secs

     End of self-consistent calculation

 ------ SPIN UP ------------


          k = 0.0000 0.0000 0.0000 (200436 PWs)   bands (ev):

   -25.3126 -22.5738 -22.5265 -19.5528 -18.9975 -18.9906 -17.1622 -15.4934
   -15.0420 -14.5073 -14.4713 -13.2169 -12.4911 -12.4902 -10.5400 -10.4830
    -8.0406  -6.7229  -6.7060  -5.3986  -5.3597  -4.6379  -3.9575  -3.9518
    -3.3026  -3.2928  -3.0414  -2.3283  -2.2331  -2.0644  -2.0476  -1.7741
    -1.7165  -0.7587  -0.7174  -0.6424  -0.6316  -0.3554  -0.3095  -0.1771

     occupation numbers 
     1.0000   1.0000   1.0000   1.0000   1.0000   1.0000   1.0000   1.0000
     1.0000   1.0000   1.0000   1.0000   1.0000   1.0000   1.0000   1.0000
     1.0000   1.0000   1.0000   0.0000   0.0000   0.0000   0.0000   0.0000
     0.0000   0.0000   0.0000   0.0000   0.0000   0.0000   0.0000   0.0000
     0.0000   0.0000   0.0000   0.0000   0.0000   0.0000   0.0000   0.0000

 ------ SPIN DOWN ----------


          k = 0.0000 0.0000 0.0000 (200436 PWs)   bands (ev):

   -25.3544 -22.6177 -22.5826 -19.0395 -19.0383 -17.9897 -17.1777 -15.5298
   -15.0613 -14.5178 -14.4854 -13.3243 -12.5069 -12.5043 -10.6543 -10.6321
    -6.1143  -6.0910  -5.4672  -5.4649  -5.3151  -4.6554  -3.9807  -3.9656
    -3.3286  -3.3171  -3.0720  -2.3310  -2.2600  -2.1034  -2.0852  -1.8623
    -1.8046  -0.7922  -0.7549  -0.6631  -0.6539  -0.4027  -0.3219  -0.1951

     occupation numbers 
     1.0000   1.0000   1.0000   1.0000   1.0000   1.0000   1.0000   1.0000
     1.0000   1.0000   1.0000   1.0000   1.0000   1.0000   1.0000   1.0000
     1.0000   1.0000   0.0000   0.0000   0.0000   0.0000   0.0000   0.0000
     0.0000   0.0000   0.0000   0.0000   0.0000   0.0000   0.0000   0.0000
     0.0000   0.0000   0.0000   0.0000   0.0000   0.0000   0.0000   0.0000

     highest occupied, lowest unoccupied level (ev):    -6.0910   -5.4672

     The total energy is the sum of the following terms:

     one-electron contribution =    -703.03029454 Ry
     hartree contribution      =     350.86666599 Ry
     xc contribution           =     -30.74236926 Ry
     ewald contribution        =     268.46058250 Ry

!    total energy              =    -114.44541530 Ry
     Harris-Foulkes estimate   =    -114.44541530 Ry
     estimated scf accuracy    <          8.8E-11 Ry

     The total energy is the sum of the following terms:

     one-electron contribution =    -703.03029454 Ry
     hartree contribution      =     350.86666599 Ry
     xc contribution           =     -30.74236926 Ry
     ewald contribution        =     268.46058250 Ry

     total magnetization       =     1.00 Bohr mag/cell
     absolute magnetization    =     1.58 Bohr mag/cell

     convergence has been achieved in   7 iterations
 
     Using Hirshfeld
        Amplitude [Ry a.u.] : -3.8913E-01
        Acceptor Fragment start :          13
        Acceptor Fragment end   :          13
        Donor Fragment start :           1
        Donor Fragment end   :          12
 
 
     Using Hirshfeld
        Amplitude [Ry a.u.] : -3.8913E-01
        Acceptor Fragment start :          13
        Acceptor Fragment end   :          13
        Donor Fragment start :           1
        Donor Fragment end   :          12
 
     E field correction              :  0.9339037778197456E+01 Ry    
 
     Donor charge                    :     -0.3486729994824316 e     
     Acceptor charge                 :      0.6512587301831738 e     
     Difference of charges           :     -0.9999317296656045 e     

     Writing output data file right.save
 
     init_run     :     17.49s CPU     17.49s WALL (       1 calls)
     electrons    :    264.44s CPU    264.44s WALL (       3 calls)
     update_pot   :      1.09s CPU      1.09s WALL (       2 calls)

     Called by init_run:
     wfcinit      :      4.35s CPU      4.35s WALL (       1 calls)
     potinit      :      0.93s CPU      0.93s WALL (       1 calls)

     Called by electrons:
     c_bands      :    159.43s CPU    159.43s WALL (      72 calls)
     sum_band     :     14.24s CPU     14.24s WALL (      72 calls)
     v_of_rho     :     40.34s CPU     40.34s WALL (      75 calls)
     v_h          :      0.46s CPU      0.46s WALL (      75 calls)
     v_xc         :     39.88s CPU     39.88s WALL (      75 calls)
     mix_rho      :      1.37s CPU      1.37s WALL (      72 calls)

     Called by c_bands:
     init_us_2    :      0.46s CPU      0.46s WALL (     290 calls)
     rcgdiagg     :    120.79s CPU    120.79s WALL (     145 calls)
     wfcrot       :     37.37s CPU     37.37s WALL (     141 calls)

     Called by sum_band:

     Called by *cgdiagg:
     h_psi        :    129.31s CPU    129.31s WALL (   16777 calls)
     rdiaghg      :     10.02s CPU     10.02s WALL (     141 calls)
     rdiaghg:chol :      0.78s CPU      0.78s WALL (     141 calls)
     rdiaghg:inve :      0.14s CPU      0.14s WALL (     141 calls)
     rdiaghg:para :      0.76s CPU      0.76s WALL (     282 calls)

     Called by h_psi:
     h_psi:vloc   :    115.94s CPU    115.94s WALL (   16777 calls)
     h_psi:vnl    :     13.14s CPU     13.13s WALL (   16777 calls)
     add_vuspsi   :      9.25s CPU      9.26s WALL (   16777 calls)

     General routines
     calbec       :      6.26s CPU      6.29s WALL (   33413 calls)
     fft          :     17.48s CPU     17.49s WALL (    3437 calls)
     fftw         :    111.82s CPU    111.84s WALL (   42128 calls)
 
     Parallel routines
     fft_scatter  :     61.60s CPU     61.60s WALL (   45565 calls)
 
     PWSCF        :  5m21.14s CPU     5m21.14s WALL

 
   This run was terminated on:  19:20:37  22Aug2015            

=------------------------------------------------------------------------------=
   JOB DONE.
=------------------------------------------------------------------------------=
2015-08-22 19:20:54.699 (INFO ) [0xfffa1f9c410] CET-00440-11771-128:1295525:ibm.runjob.client.Job: exited with status 0
2015-08-22 19:20:54.699 (INFO ) [0xfffa1f9c410] tatu.runjob.client: task exited with status 0
2015-08-22 19:20:54.699 (INFO ) [0xfff87c234e0] 39286:tatu.runjob.monitor: monitor terminating
2015-08-22 19:20:54.703 (INFO ) [0xfffa1f9c410] tatu.runjob.client: monitor completed
