
     Program PWSCF v.5.1.1 starts on 12Feb2016 at 13:23:21 

     This program is part of the open-source Quantum ESPRESSO suite
     for quantum simulation of materials; please cite
         "P. Giannozzi et al., J. Phys.:Condens. Matter 21 395502 (2009);
          URL http://www.quantum-espresso.org", 
     in publications or presentations arising from this work. More details at
     http://www.quantum-espresso.org/quote

     Parallel version (MPI & OpenMP), running on       8 processor cores
     Number of MPI processes:                 1
     Threads/MPI process:                     8
     Reading input from left.in
 Reading EPCDFT CARD. Printing based upon belief that input should be reproducab
 le from output.
     Reading   1 constraint(s); tolerance:    0.010000 max change in field 0.00
          constraint           type   A   A   D   D      T      L
                   1  delta_charge    1   1   2   2 2.0000 1.1360

     Current dimensions of program PWSCF are:
     Max number of different atomic species (ntypx) = 10
     Max number of k-points (npk) =  40000
     Max angular momentum in pseudopotentials (lmaxx) =  3
               file H.pbe-mt_fhi.UPF: wavefunction(s)  2p 4f renormalized

     gamma-point specific algorithms are used

     Subspace diagonalization in iterative solution of the eigenvalue problem:
     a serial algorithm will be used

 
     G-vector sticks info
     --------------------
     sticks:   dense  smooth     PW     G-vecs:    dense   smooth      PW
     Sum        9809    9809   2449               732287   732287   91623
     Tot        4905    4905   1225
 
     Generating pointlists ...
     new r_m :   0.1719 (alat units)  3.8976 (a.u.) for type    1


     bravais-lattice index     =            1
     lattice parameter (alat)  =      22.6767  a.u.
     unit-cell volume          =   11661.1222 (a.u.)^3
     number of atoms/cell      =            2
     number of atomic types    =            1
     number of electrons       =         2.00 (up:   1.00, down:   1.00)
     number of Kohn-Sham states=            4
     kinetic-energy cutoff     =      60.0000  Ry
     charge density cutoff     =     240.0000  Ry
     convergence threshold     =      1.0E-08
     mixing beta               =       0.3000
     number of iterations used =            8  plain     mixing
     Exchange-correlation      = PBE ( 1  4  3  4 0 0)

     celldm(1)=  22.676714  celldm(2)=   0.000000  celldm(3)=   0.000000
     celldm(4)=   0.000000  celldm(5)=   0.000000  celldm(6)=   0.000000

     crystal axes: (cart. coord. in units of alat)
               a(1) = (   1.000000   0.000000   0.000000 )  
               a(2) = (   0.000000   1.000000   0.000000 )  
               a(3) = (   0.000000   0.000000   1.000000 )  

     reciprocal axes: (cart. coord. in units 2 pi/alat)
               b(1) = (  1.000000  0.000000  0.000000 )  
               b(2) = (  0.000000  1.000000  0.000000 )  
               b(3) = (  0.000000  0.000000  1.000000 )  


     PseudoPot. # 1 for  H read from file:
     ../pseudo/H.pbe-mt_fhi.UPF
     MD5 check sum: a19bd5488733b3d98581df861506e80d
     Pseudo is Norm-conserving, Zval =  1.0
     Generated using FHI98PP, converted with fhi2upf.x v.5.0.2
     Using radial grid of  387 points,  3 beta functions with: 
                l(1) =   0
                l(2) =   1
                l(3) =   3

     atomic species   valence    mass     pseudopotential
        H              1.00     1.00794      H( 1.00)

     Starting magnetic structure 
     atomic species   magnetization
        H            0.000

     No symmetry found


                                    s                        frac. trans.

      isym =  1     identity                                     

 cryst.   s( 1) = (     1          0          0      )
                  (     0          1          0      )
                  (     0          0          1      )

 cart.    s( 1) = (  1.0000000  0.0000000  0.0000000 )
                  (  0.0000000  1.0000000  0.0000000 )
                  (  0.0000000  0.0000000  1.0000000 )


     point group C_1 (1)    
     there are  1 classes
     the character table:

       E    
A      1.00

     the symmetry operations in each class:
     E        1

   Cartesian axes

     site n.     atom                  positions (alat units)
         1           H   tau(   1) = (   0.0000000   0.0000000   0.0000000  )
         2           H   tau(   2) = (   0.4166667   0.0000000   0.0000000  )

   Crystallographic axes

     site n.     atom                  positions (cryst. coord.)
         1           H   tau(   1) = (  0.0000000  0.0000000  0.0000000  )
         2           H   tau(   2) = (  0.4166667  0.0000000  0.0000000  )

     number of k points=     2
                       cart. coord. in units 2pi/alat
        k(    1) = (   0.0000000   0.0000000   0.0000000), wk =   1.0000000
        k(    2) = (   0.0000000   0.0000000   0.0000000), wk =   1.0000000

                       cryst. coord.
        k(    1) = (   0.0000000   0.0000000   0.0000000), wk =   1.0000000
        k(    2) = (   0.0000000   0.0000000   0.0000000), wk =   1.0000000

     Dense  grid:   366144 G-vectors     FFT dimensions: ( 120, 120, 120)

     Largest allocated arrays     est. size (Mb)     dimensions
        Kohn-Sham Wavefunctions         2.80 Mb     (   45812,    4)
        NL pseudopotentials            15.38 Mb     (   45812,   22)
        Each V/rho on FFT grid         52.73 Mb     ( 1728000,   2)
        Each G-vector array             2.79 Mb     (  366144)
        G-vector shells                 0.02 Mb     (    2609)
     Largest temporary arrays     est. size (Mb)     dimensions
        Auxiliary wavefunctions         5.59 Mb     (   45812,   16)
        Each subspace H/S matrix        0.00 Mb     (      16,   16)
        Each <psi_i|beta_j> matrix      0.00 Mb     (      22,    4)
        Arrays for rho mixing         210.94 Mb     ( 1728000,    8)

     Initial potential from superposition of free atoms

     starting charge    1.99998, renormalised to    2.00000

     negative rho (up, down):  3.129E-05 3.129E-05
     Starting wfc are   32 randomized atomic wfcs

     total cpu time spent up to now is        5.3 secs

     per-process dynamical memory:   471.7 Mb

     Self-consistent Calculation

     iteration #  1     ecut=    60.00 Ry     beta=0.30
     Davidson diagonalization with overlap
     ethr =  1.00E-02,  avg # of iterations =  4.0

     negative rho (up, down):  2.109E-05 2.131E-05
 
     Magnetic moment per site:
     atom:    1    charge:    1.2743    magn:   -0.0001    constr:    0.0000
     atom:    2    charge:    0.6857    magn:    0.0000    constr:    0.0000

     total cpu time spent up to now is        8.9 secs

     total energy              =      -1.46366463 Ry
     Harris-Foulkes estimate   =      -4.10188384 Ry
     estimated scf accuracy    <       0.90875105 Ry

     total magnetization       =    -0.00 Bohr mag/cell
     absolute magnetization    =     0.01 Bohr mag/cell

     iteration #  2     ecut=    60.00 Ry     beta=0.30
     Davidson diagonalization with overlap
     ethr =  1.00E-02,  avg # of iterations =  1.0

     negative rho (up, down):  2.863E-06 3.397E-06
 
     Magnetic moment per site:
     atom:    1    charge:    1.7967    magn:    0.0000    constr:    0.0000
     atom:    2    charge:    0.1502    magn:   -0.0000    constr:    0.0000

     total cpu time spent up to now is       11.5 secs

     total energy              =      -1.21627171 Ry
     Harris-Foulkes estimate   =      -3.06522839 Ry
     estimated scf accuracy    <       0.37971682 Ry

     total magnetization       =     0.00 Bohr mag/cell
     absolute magnetization    =     0.00 Bohr mag/cell

     iteration #  3     ecut=    60.00 Ry     beta=0.30
     Davidson diagonalization with overlap
     ethr =  1.00E-02,  avg # of iterations =  2.0

     negative rho (up, down):  2.858E-06 3.375E-06
 
     Magnetic moment per site:
     atom:    1    charge:    1.7857    magn:    0.0001    constr:    0.0000
     atom:    2    charge:    0.1537    magn:   -0.0000    constr:    0.0000

     total cpu time spent up to now is       14.2 secs

     total energy              =      -1.28827055 Ry
     Harris-Foulkes estimate   =      -1.62988009 Ry
     estimated scf accuracy    <       0.07134556 Ry

     total magnetization       =     0.00 Bohr mag/cell
     absolute magnetization    =     0.00 Bohr mag/cell

     iteration #  4     ecut=    60.00 Ry     beta=0.30
     Davidson diagonalization with overlap
     ethr =  3.57E-03,  avg # of iterations =  5.5

     negative rho (up, down):  1.216E-03 1.996E-03
 
     Magnetic moment per site:
     atom:    1    charge:    1.7936    magn:   -0.0029    constr:    0.0000
     atom:    2    charge:    0.0652    magn:    0.0000    constr:    0.0000

     total cpu time spent up to now is       17.6 secs

     total energy              =      -1.32872852 Ry
     Harris-Foulkes estimate   =      -1.63762228 Ry
     estimated scf accuracy    <       0.06211252 Ry

     total magnetization       =    -0.00 Bohr mag/cell
     absolute magnetization    =     0.01 Bohr mag/cell

     iteration #  5     ecut=    60.00 Ry     beta=0.30
     Davidson diagonalization with overlap
     ethr =  3.11E-03,  avg # of iterations =  1.0

     negative rho (up, down):  9.935E-02 9.978E-02
 
     Magnetic moment per site:
     atom:    1    charge:    2.1606    magn:    0.0014    constr:    0.0000
     atom:    2    charge:    0.0015    magn:   -0.0001    constr:    0.0000

     total cpu time spent up to now is       20.5 secs

     total energy              =      -1.32984712 Ry
     Harris-Foulkes estimate   =      -1.48276438 Ry
     estimated scf accuracy    <       0.21933076 Ry

     total magnetization       =    -0.00 Bohr mag/cell
     absolute magnetization    =     0.04 Bohr mag/cell

     iteration #  6     ecut=    60.00 Ry     beta=0.30
     Davidson diagonalization with overlap
     ethr =  3.11E-03,  avg # of iterations =  1.0

     negative rho (up, down):  1.640E-01 1.633E-01
 
     Magnetic moment per site:
     atom:    1    charge:    2.2847    magn:    0.0027    constr:    0.0000
     atom:    2    charge:    0.0012    magn:   -0.0001    constr:    0.0000

     total cpu time spent up to now is       23.3 secs

     total energy              =      -1.36643411 Ry
     Harris-Foulkes estimate   =      -1.30954645 Ry
     estimated scf accuracy    <       0.10100517 Ry

     total magnetization       =     0.00 Bohr mag/cell
     absolute magnetization    =     0.01 Bohr mag/cell

     iteration #  7     ecut=    60.00 Ry     beta=0.30
     Davidson diagonalization with overlap
     ethr =  3.11E-03,  avg # of iterations =  1.0

     negative rho (up, down):  1.869E-01 1.853E-01
 
     Magnetic moment per site:
     atom:    1    charge:    2.3277    magn:    0.0038    constr:    0.0000
     atom:    2    charge:    0.0012    magn:   -0.0001    constr:    0.0000

     total cpu time spent up to now is       26.1 secs

     total energy              =      -1.39186061 Ry
     Harris-Foulkes estimate   =      -1.34135517 Ry
     estimated scf accuracy    <       0.18259153 Ry

     total magnetization       =    -0.00 Bohr mag/cell
     absolute magnetization    =     0.02 Bohr mag/cell

     iteration #  8     ecut=    60.00 Ry     beta=0.30
     Davidson diagonalization with overlap
     ethr =  3.11E-03,  avg # of iterations =  1.0

     negative rho (up, down):  2.575E-01 2.558E-01
 
     Magnetic moment per site:
     atom:    1    charge:    2.4575    magn:    0.0039    constr:    0.0000
     atom:    2    charge:    0.0014    magn:   -0.0001    constr:    0.0000

     total cpu time spent up to now is       29.0 secs
       I     D       A      Val   Target      Old      New
       1 0.996  -1.974    2.012    2.000    1.136    1.135

     total energy              =      -1.45069222 Ry
     Harris-Foulkes estimate   =      -1.35705281 Ry
     estimated scf accuracy    <       0.22636862 Ry

     total magnetization       =    -0.00 Bohr mag/cell
     absolute magnetization    =     0.03 Bohr mag/cell

     iteration #  9     ecut=    60.00 Ry     beta=0.30
     Davidson diagonalization with overlap
     ethr =  3.11E-03,  avg # of iterations =  1.0

     negative rho (up, down):  1.682E-01 1.736E-01
 
     Magnetic moment per site:
     atom:    1    charge:    2.2932    magn:   -0.0035    constr:    0.0000
     atom:    2    charge:    0.0018    magn:   -0.0000    constr:    0.0000

     total cpu time spent up to now is       32.3 secs

     total energy              =      -1.37949702 Ry
     Harris-Foulkes estimate   =      -1.41285020 Ry
     estimated scf accuracy    <       0.38797668 Ry

     total magnetization       =     0.00 Bohr mag/cell
     absolute magnetization    =     0.05 Bohr mag/cell

     iteration # 10     ecut=    60.00 Ry     beta=0.30
     Davidson diagonalization with overlap
     ethr =  3.11E-03,  avg # of iterations =  1.0

     negative rho (up, down):  3.039E-04 1.019E-03
 
     Magnetic moment per site:
     atom:    1    charge:    1.7362    magn:   -0.0280    constr:    0.0000
     atom:    2    charge:    0.0001    magn:    0.0003    constr:    0.0000

     total cpu time spent up to now is       35.2 secs

     total energy              =      -1.24313575 Ry
     Harris-Foulkes estimate   =      -1.34548718 Ry
     estimated scf accuracy    <       0.18866423 Ry

     total magnetization       =     0.00 Bohr mag/cell
     absolute magnetization    =     0.02 Bohr mag/cell

     iteration # 11     ecut=    60.00 Ry     beta=0.30
     Davidson diagonalization with overlap
     ethr =  3.11E-03,  avg # of iterations =  2.5

     negative rho (up, down):  1.880E-04 4.900E-04
 
     Magnetic moment per site:
     atom:    1    charge:    1.7160    magn:   -0.0186    constr:    0.0000
     atom:    2    charge:   -0.0001    magn:    0.0002    constr:    0.0000

     total cpu time spent up to now is       38.3 secs

     total energy              =      -1.27601733 Ry
     Harris-Foulkes estimate   =      -1.28064165 Ry
     estimated scf accuracy    <       0.00333465 Ry

     total magnetization       =     0.00 Bohr mag/cell
     absolute magnetization    =     0.02 Bohr mag/cell

     iteration # 12     ecut=    60.00 Ry     beta=0.30
     Davidson diagonalization with overlap
     ethr =  1.67E-04,  avg # of iterations =  9.0

     negative rho (up, down):  1.199E-03 2.436E-03
 
     Magnetic moment per site:
     atom:    1    charge:    1.8671    magn:   -0.0120    constr:    0.0000
     atom:    2    charge:    0.0003    magn:    0.0001    constr:    0.0000

     total cpu time spent up to now is       42.2 secs

     total energy              =      -1.27669614 Ry
     Harris-Foulkes estimate   =      -1.28082791 Ry
     estimated scf accuracy    <       0.00306909 Ry

     total magnetization       =     0.00 Bohr mag/cell
     absolute magnetization    =     0.02 Bohr mag/cell

     iteration # 13     ecut=    60.00 Ry     beta=0.30
     Davidson diagonalization with overlap
     ethr =  1.53E-04,  avg # of iterations =  2.0

     negative rho (up, down):  1.045E-03 1.896E-03
 
     Magnetic moment per site:
     atom:    1    charge:    1.8756    magn:   -0.0088    constr:    0.0000
     atom:    2    charge:    0.0003    magn:    0.0000    constr:    0.0000

     total cpu time spent up to now is       45.3 secs

     total energy              =      -1.27811118 Ry
     Harris-Foulkes estimate   =      -1.27647953 Ry
     estimated scf accuracy    <       0.00156473 Ry

     total magnetization       =    -0.00 Bohr mag/cell
     absolute magnetization    =     0.01 Bohr mag/cell

     iteration # 14     ecut=    60.00 Ry     beta=0.30
     Davidson diagonalization with overlap
     ethr =  7.82E-05,  avg # of iterations =  1.0

     negative rho (up, down):  1.743E-04 1.743E-04
 
     Magnetic moment per site:
     atom:    1    charge:    1.8693    magn:   -0.0027    constr:    0.0000
     atom:    2    charge:    0.0002    magn:   -0.0000    constr:    0.0000

     total cpu time spent up to now is       48.2 secs

     total energy              =      -1.27906146 Ry
     Harris-Foulkes estimate   =      -1.27623416 Ry
     estimated scf accuracy    <       0.00220048 Ry

     total magnetization       =     0.00 Bohr mag/cell
     absolute magnetization    =     0.01 Bohr mag/cell

     iteration # 15     ecut=    60.00 Ry     beta=0.30
     Davidson diagonalization with overlap
     ethr =  7.82E-05,  avg # of iterations =  1.0

     negative rho (up, down):  6.243E-05 2.871E-05
 
     Magnetic moment per site:
     atom:    1    charge:    1.8631    magn:   -0.0017    constr:    0.0000
     atom:    2    charge:    0.0002    magn:   -0.0000    constr:    0.0000

     total cpu time spent up to now is       51.1 secs

     total energy              =      -1.27913523 Ry
     Harris-Foulkes estimate   =      -1.27640537 Ry
     estimated scf accuracy    <       0.00227402 Ry

     total magnetization       =    -0.00 Bohr mag/cell
     absolute magnetization    =     0.00 Bohr mag/cell

     iteration # 16     ecut=    60.00 Ry     beta=0.30
     Davidson diagonalization with overlap
     ethr =  7.82E-05,  avg # of iterations =  1.0

     negative rho (up, down):  1.634E-05 4.041E-06
 
     Magnetic moment per site:
     atom:    1    charge:    1.8546    magn:   -0.0011    constr:    0.0000
     atom:    2    charge:    0.0001    magn:   -0.0000    constr:    0.0000

     total cpu time spent up to now is       54.0 secs

     total energy              =      -1.27909069 Ry
     Harris-Foulkes estimate   =      -1.27647545 Ry
     estimated scf accuracy    <       0.00185474 Ry

     total magnetization       =    -0.00 Bohr mag/cell
     absolute magnetization    =     0.00 Bohr mag/cell

     iteration # 17     ecut=    60.00 Ry     beta=0.30
     Davidson diagonalization with overlap
     ethr =  7.82E-05,  avg # of iterations =  1.0

     negative rho (up, down):  6.764E-06 3.132E-06
 
     Magnetic moment per site:
     atom:    1    charge:    1.8481    magn:   -0.0009    constr:    0.0000
     atom:    2    charge:    0.0002    magn:   -0.0000    constr:    0.0000

     total cpu time spent up to now is       56.9 secs

     total energy              =      -1.27886835 Ry
     Harris-Foulkes estimate   =      -1.27669261 Ry
     estimated scf accuracy    <       0.00105315 Ry

     total magnetization       =    -0.00 Bohr mag/cell
     absolute magnetization    =     0.00 Bohr mag/cell

     iteration # 18     ecut=    60.00 Ry     beta=0.30
     Davidson diagonalization with overlap
     ethr =  5.27E-05,  avg # of iterations =  1.0

     negative rho (up, down):  3.379E-06 1.428E-06
 
     Magnetic moment per site:
     atom:    1    charge:    1.8502    magn:   -0.0007    constr:    0.0000
     atom:    2    charge:    0.0003    magn:   -0.0000    constr:    0.0000

     total cpu time spent up to now is       59.7 secs
       I     D       A      Val   Target      Old      New
       1 0.999  -0.992    1.991    2.000    1.136    1.135

     total energy              =      -1.27904074 Ry
     Harris-Foulkes estimate   =      -1.27701115 Ry
     estimated scf accuracy    <       0.00056077 Ry

     total magnetization       =    -0.00 Bohr mag/cell
     absolute magnetization    =     0.00 Bohr mag/cell

     iteration # 19     ecut=    60.00 Ry     beta=0.30
     Davidson diagonalization with overlap
     ethr =  2.80E-05,  avg # of iterations =  1.0

     negative rho (up, down):  4.131E-06 2.910E-06
 
     Magnetic moment per site:
     atom:    1    charge:    1.8186    magn:   -0.0002    constr:    0.0000
     atom:    2    charge:    0.0006    magn:   -0.0000    constr:    0.0000

     total cpu time spent up to now is       62.9 secs

     total energy              =      -1.27882785 Ry
     Harris-Foulkes estimate   =      -1.27736072 Ry
     estimated scf accuracy    <       0.00104108 Ry

     total magnetization       =     0.00 Bohr mag/cell
     absolute magnetization    =     0.00 Bohr mag/cell

     iteration # 20     ecut=    60.00 Ry     beta=0.30
     Davidson diagonalization with overlap
     ethr =  2.80E-05,  avg # of iterations =  1.0

     negative rho (up, down):  2.256E-06 1.618E-06
 
     Magnetic moment per site:
     atom:    1    charge:    1.8229    magn:   -0.0007    constr:    0.0000
     atom:    2    charge:    0.0003    magn:   -0.0000    constr:    0.0000

     total cpu time spent up to now is       65.8 secs

     total energy              =      -1.27859005 Ry
     Harris-Foulkes estimate   =      -1.27928958 Ry
     estimated scf accuracy    <       0.00013651 Ry

     total magnetization       =    -0.00 Bohr mag/cell
     absolute magnetization    =     0.00 Bohr mag/cell

     iteration # 21     ecut=    60.00 Ry     beta=0.30
     Davidson diagonalization with overlap
     ethr =  6.83E-06,  avg # of iterations =  4.5

     negative rho (up, down):  6.867E-07 3.866E-07
 
     Magnetic moment per site:
     atom:    1    charge:    1.8205    magn:   -0.0005    constr:    0.0000
     atom:    2    charge:    0.0003    magn:   -0.0000    constr:    0.0000

     total cpu time spent up to now is       69.0 secs

     total energy              =      -1.27826855 Ry
     Harris-Foulkes estimate   =      -1.27843527 Ry
     estimated scf accuracy    <       0.00000726 Ry

     total magnetization       =     0.00 Bohr mag/cell
     absolute magnetization    =     0.00 Bohr mag/cell

     iteration # 22     ecut=    60.00 Ry     beta=0.30
     Davidson diagonalization with overlap
     ethr =  3.63E-07,  avg # of iterations =  1.5

     negative rho (up, down):  3.007E-07 1.323E-07
 
     Magnetic moment per site:
     atom:    1    charge:    1.8204    magn:   -0.0005    constr:    0.0000
     atom:    2    charge:    0.0002    magn:    0.0000    constr:    0.0000

     total cpu time spent up to now is       72.1 secs

     total energy              =      -1.27832626 Ry
     Harris-Foulkes estimate   =      -1.27860696 Ry
     estimated scf accuracy    <       0.00000087 Ry

     total magnetization       =    -0.00 Bohr mag/cell
     absolute magnetization    =     0.00 Bohr mag/cell

     iteration # 23     ecut=    60.00 Ry     beta=0.30
     Davidson diagonalization with overlap
     ethr =  4.36E-08,  avg # of iterations =  2.0

     negative rho (up, down):  1.190E-07 1.779E-07
 
     Magnetic moment per site:
     atom:    1    charge:    1.8194    magn:   -0.0003    constr:    0.0000
     atom:    2    charge:    0.0001    magn:    0.0000    constr:    0.0000

     total cpu time spent up to now is       74.9 secs

     total energy              =      -1.27831220 Ry
     Harris-Foulkes estimate   =      -1.27846074 Ry
     estimated scf accuracy    <       0.00000047 Ry

     total magnetization       =    -0.00 Bohr mag/cell
     absolute magnetization    =     0.00 Bohr mag/cell

     iteration # 24     ecut=    60.00 Ry     beta=0.30
     Davidson diagonalization with overlap
     ethr =  2.33E-08,  avg # of iterations =  1.5

     negative rho (up, down):  5.100E-06 5.073E-06
 
     Magnetic moment per site:
     atom:    1    charge:    1.8197    magn:   -0.0001    constr:    0.0000
     atom:    2    charge:    0.0001    magn:    0.0000    constr:    0.0000

     total cpu time spent up to now is       77.8 secs

     total energy              =      -1.27831677 Ry
     Harris-Foulkes estimate   =      -1.27838157 Ry
     estimated scf accuracy    <       0.00000016 Ry

     total magnetization       =    -0.00 Bohr mag/cell
     absolute magnetization    =     0.00 Bohr mag/cell

     iteration # 25     ecut=    60.00 Ry     beta=0.30
     Davidson diagonalization with overlap
     ethr =  8.07E-09,  avg # of iterations =  1.0

     negative rho (up, down):  3.107E-06 2.991E-06
 
     Magnetic moment per site:
     atom:    1    charge:    1.8200    magn:   -0.0000    constr:    0.0000
     atom:    2    charge:    0.0001    magn:   -0.0000    constr:    0.0000

     total cpu time spent up to now is       80.8 secs

     total energy              =      -1.27831585 Ry
     Harris-Foulkes estimate   =      -1.27832239 Ry
     estimated scf accuracy    <       0.00000009 Ry

     total magnetization       =     0.00 Bohr mag/cell
     absolute magnetization    =     0.00 Bohr mag/cell

     iteration # 26     ecut=    60.00 Ry     beta=0.30
     Davidson diagonalization with overlap
     ethr =  4.68E-09,  avg # of iterations =  1.0

     negative rho (up, down):  4.837E-06 4.814E-06
 
     Magnetic moment per site:
     atom:    1    charge:    1.8199    magn:   -0.0000    constr:    0.0000
     atom:    2    charge:    0.0001    magn:    0.0000    constr:    0.0000

     total cpu time spent up to now is       83.6 secs

     total energy              =      -1.27831801 Ry
     Harris-Foulkes estimate   =      -1.27830812 Ry
     estimated scf accuracy    <       0.00000002 Ry

     total magnetization       =    -0.00 Bohr mag/cell
     absolute magnetization    =     0.00 Bohr mag/cell

     iteration # 27     ecut=    60.00 Ry     beta=0.30
     Davidson diagonalization with overlap
     ethr =  1.04E-09,  avg # of iterations =  2.5
 
     Magnetic moment per site:
     atom:    1    charge:    1.8200    magn:   -0.0000    constr:    0.0000
     atom:    2    charge:    0.0001    magn:    0.0000    constr:    0.0000

     total cpu time spent up to now is       86.0 secs

     End of self-consistent calculation

 ------ SPIN UP ------------


          k = 0.0000 0.0000 0.0000 ( 45812 PWs)   bands (ev):

   -15.8546 -11.1745 -11.1744 -10.8672

     occupation numbers 
     1.0000   0.0000   0.0000   0.0000

 ------ SPIN DOWN ----------


          k = 0.0000 0.0000 0.0000 ( 45812 PWs)   bands (ev):

   -15.8548 -11.1744 -11.1744 -10.8673

     occupation numbers 
     1.0000   0.0000   0.0000   0.0000

     highest occupied, lowest unoccupied level (ev):   -15.8546  -11.1745
       I     D       A      Val   Target      Old      New
       1 1.000  -0.990    1.990    2.000    1.135    1.135

!    total energy              =      -1.27831985 Ry
     Harris-Foulkes estimate   =      -1.27830439 Ry
     estimated scf accuracy    <          7.8E-09 Ry

     The total energy is the sum of the following terms:

     one-electron contribution =      -1.32847233 Ry
     hartree contribution      =       1.22210827 Ry
     xc contribution           =      -0.92402809 Ry
     ewald contribution        =      -0.24792770 Ry
     CDFT correction           =       2.25859903 Ry

     total magnetization       =     0.00 Bohr mag/cell
     absolute magnetization    =     0.00 Bohr mag/cell

     convergence has been achieved in  27 iterations
     charge density from previous step

     total cpu time spent up to now is       88.5 secs

     per-process dynamical memory:   421.8 Mb

     Self-consistent Calculation

     iteration #  1     ecut=    60.00 Ry     beta=0.30
     Davidson diagonalization with overlap
     ethr =  1.04E-09,  avg # of iterations =  2.0
 
     Magnetic moment per site:
     atom:    1    charge:    1.8200    magn:   -0.0000    constr:    0.0000
     atom:    2    charge:    0.0001    magn:    0.0000    constr:    0.0000

     total cpu time spent up to now is       91.2 secs

     End of self-consistent calculation

 ------ SPIN UP ------------


          k = 0.0000 0.0000 0.0000 ( 45812 PWs)   bands (ev):

   -15.8600 -11.1801 -11.1801 -10.8728

     occupation numbers 
     1.0000   0.0000   0.0000   0.0000

 ------ SPIN DOWN ----------


          k = 0.0000 0.0000 0.0000 ( 45812 PWs)   bands (ev):

   -15.8601 -11.1801 -11.1801 -10.8728

     occupation numbers 
     1.0000   0.0000   0.0000   0.0000

     highest occupied, lowest unoccupied level (ev):   -15.8600  -11.1801
       I     D       A      Val   Target      Old      New
       1 1.000  -0.990    1.990    2.000    1.135    1.136

!    total energy              =      -1.27831789 Ry
     Harris-Foulkes estimate   =      -1.27831986 Ry
     estimated scf accuracy    <          3.8E-09 Ry

     The total energy is the sum of the following terms:

     one-electron contribution =      -1.32842021 Ry
     hartree contribution      =       1.22200638 Ry
     xc contribution           =      -0.92397636 Ry
     ewald contribution        =      -0.24792770 Ry
     CDFT correction           =       2.25950815 Ry

     total magnetization       =     0.00 Bohr mag/cell
     absolute magnetization    =     0.00 Bohr mag/cell

     convergence has been achieved in   1 iterations
     charge density from previous step

     total cpu time spent up to now is       93.7 secs

     per-process dynamical memory:   421.8 Mb

     Self-consistent Calculation

     iteration #  1     ecut=    60.00 Ry     beta=0.30
     Davidson diagonalization with overlap
     ethr =  1.04E-09,  avg # of iterations =  2.0
 
     Magnetic moment per site:
     atom:    1    charge:    1.8200    magn:    0.0000    constr:    0.0000
     atom:    2    charge:    0.0001    magn:    0.0000    constr:    0.0000

     total cpu time spent up to now is       96.4 secs

     End of self-consistent calculation

 ------ SPIN UP ------------


          k = 0.0000 0.0000 0.0000 ( 45812 PWs)   bands (ev):

   -15.8742 -11.1933 -11.1933 -10.8860

     occupation numbers 
     1.0000   0.0000   0.0000   0.0000

 ------ SPIN DOWN ----------


          k = 0.0000 0.0000 0.0000 ( 45812 PWs)   bands (ev):

   -15.8742 -11.1933 -11.1933 -10.8860

     occupation numbers 
     1.0000   0.0000   0.0000   0.0000

     highest occupied, lowest unoccupied level (ev):   -15.8742  -11.1933
       I     D       A      Val   Target      Old      New
       1 1.000  -0.990    1.990    2.000    1.136    1.137

!    total energy              =      -1.27830594 Ry
     Harris-Foulkes estimate   =      -1.27831789 Ry
     estimated scf accuracy    <          4.7E-09 Ry

     The total energy is the sum of the following terms:

     one-electron contribution =      -1.32847095 Ry
     hartree contribution      =       1.22213046 Ry
     xc contribution           =      -0.92403775 Ry
     ewald contribution        =      -0.24792770 Ry
     CDFT correction           =       2.26151006 Ry

     total magnetization       =    -0.00 Bohr mag/cell
     absolute magnetization    =     0.00 Bohr mag/cell

     convergence has been achieved in   1 iterations
     charge density from previous step

     total cpu time spent up to now is       98.9 secs

     per-process dynamical memory:   421.8 Mb

     Self-consistent Calculation

     iteration #  1     ecut=    60.00 Ry     beta=0.30
     Davidson diagonalization with overlap
     ethr =  1.04E-09,  avg # of iterations =  2.0

     Threshold (ethr) on eigenvalues was too large:
     Diagonalizing with lowered threshold

     Davidson diagonalization with overlap
     ethr =  6.14E-11,  avg # of iterations =  1.0
 
     Magnetic moment per site:
     atom:    1    charge:    1.8200    magn:   -0.0000    constr:    0.0000
     atom:    2    charge:    0.0001    magn:    0.0000    constr:    0.0000

     total cpu time spent up to now is      102.6 secs

     End of self-consistent calculation

 ------ SPIN UP ------------


          k = 0.0000 0.0000 0.0000 ( 45812 PWs)   bands (ev):

   -15.8870 -11.2062 -11.2062 -10.8986

     occupation numbers 
     1.0000   0.0000   0.0000   0.0000

 ------ SPIN DOWN ----------


          k = 0.0000 0.0000 0.0000 ( 45812 PWs)   bands (ev):

   -15.8870 -11.2062 -11.2062 -10.8986

     occupation numbers 
     1.0000   0.0000   0.0000   0.0000

     highest occupied, lowest unoccupied level (ev):   -15.8870  -11.2062
       I     D       A      Val   Target      Old      New
       1 1.000  -0.990    1.990    2.000    1.137    1.138

!    total energy              =      -1.27829863 Ry
     Harris-Foulkes estimate   =      -1.27830595 Ry
     estimated scf accuracy    <          1.3E-09 Ry

     The total energy is the sum of the following terms:

     one-electron contribution =      -1.32844305 Ry
     hartree contribution      =       1.22208735 Ry
     xc contribution           =      -0.92401523 Ry
     ewald contribution        =      -0.24792770 Ry
     CDFT correction           =       2.26350734 Ry

     total magnetization       =     0.00 Bohr mag/cell
     absolute magnetization    =     0.00 Bohr mag/cell

     convergence has been achieved in   1 iterations
     charge density from previous step

     total cpu time spent up to now is      105.1 secs

     per-process dynamical memory:   421.8 Mb

     Self-consistent Calculation

     iteration #  1     ecut=    60.00 Ry     beta=0.30
     Davidson diagonalization with overlap
     ethr =  6.14E-11,  avg # of iterations =  4.0
 
     Magnetic moment per site:
     atom:    1    charge:    1.8201    magn:   -0.0000    constr:    0.0000
     atom:    2    charge:    0.0001    magn:    0.0000    constr:    0.0000

     total cpu time spent up to now is      108.2 secs

     End of self-consistent calculation

 ------ SPIN UP ------------


          k = 0.0000 0.0000 0.0000 ( 45812 PWs)   bands (ev):

   -15.9008 -11.2193 -11.2193 -10.9117

     occupation numbers 
     1.0000   0.0000   0.0000   0.0000

 ------ SPIN DOWN ----------


          k = 0.0000 0.0000 0.0000 ( 45812 PWs)   bands (ev):

   -15.9008 -11.2193 -11.2193 -10.9117

     occupation numbers 
     1.0000   0.0000   0.0000   0.0000

     highest occupied, lowest unoccupied level (ev):   -15.9008  -11.2193
       I     D       A      Val   Target      Old      New
       1 1.000  -0.990    1.990    2.000    1.138    1.139

!    total energy              =      -1.27828711 Ry
     Harris-Foulkes estimate   =      -1.27829864 Ry
     estimated scf accuracy    <          3.2E-09 Ry

     The total energy is the sum of the following terms:

     one-electron contribution =      -1.32848449 Ry
     hartree contribution      =       1.22219137 Ry
     xc contribution           =      -0.92406629 Ry
     ewald contribution        =      -0.24792770 Ry
     CDFT correction           =       2.26550886 Ry

     total magnetization       =     0.00 Bohr mag/cell
     absolute magnetization    =     0.00 Bohr mag/cell

     convergence has been achieved in   1 iterations
     charge density from previous step

     total cpu time spent up to now is      110.7 secs

     per-process dynamical memory:   421.8 Mb

     Self-consistent Calculation

     iteration #  1     ecut=    60.00 Ry     beta=0.30
     Davidson diagonalization with overlap
     ethr =  6.14E-11,  avg # of iterations =  3.0
 
     Magnetic moment per site:
     atom:    1    charge:    1.8201    magn:   -0.0000    constr:    0.0000
     atom:    2    charge:    0.0001    magn:   -0.0000    constr:    0.0000

     total cpu time spent up to now is      113.7 secs

     End of self-consistent calculation

 ------ SPIN UP ------------


          k = 0.0000 0.0000 0.0000 ( 45812 PWs)   bands (ev):

   -15.9137 -11.2321 -11.2321 -10.9243

     occupation numbers 
     1.0000   0.0000   0.0000   0.0000

 ------ SPIN DOWN ----------


          k = 0.0000 0.0000 0.0000 ( 45812 PWs)   bands (ev):

   -15.9137 -11.2321 -11.2321 -10.9243

     occupation numbers 
     1.0000   0.0000   0.0000   0.0000

     highest occupied, lowest unoccupied level (ev):   -15.9137  -11.2321
       I     D       A      Val   Target      Old      New
       1 1.000  -0.990    1.990    2.000    1.139    1.140

!    total energy              =      -1.27827907 Ry
     Harris-Foulkes estimate   =      -1.27828711 Ry
     estimated scf accuracy    <          9.3E-10 Ry

     The total energy is the sum of the following terms:

     one-electron contribution =      -1.32845792 Ry
     hartree contribution      =       1.22215213 Ry
     xc contribution           =      -0.92404557 Ry
     ewald contribution        =      -0.24792770 Ry
     CDFT correction           =       2.26750689 Ry

     total magnetization       =     0.00 Bohr mag/cell
     absolute magnetization    =     0.00 Bohr mag/cell

     convergence has been achieved in   1 iterations
     charge density from previous step

     total cpu time spent up to now is      116.4 secs

     per-process dynamical memory:   421.8 Mb

     Self-consistent Calculation

     iteration #  1     ecut=    60.00 Ry     beta=0.30
     Davidson diagonalization with overlap
     ethr =  6.14E-11,  avg # of iterations =  4.0
 
     Magnetic moment per site:
     atom:    1    charge:    1.8201    magn:    0.0000    constr:    0.0000
     atom:    2    charge:    0.0001    magn:    0.0000    constr:    0.0000

     total cpu time spent up to now is      119.6 secs

     End of self-consistent calculation

 ------ SPIN UP ------------


          k = 0.0000 0.0000 0.0000 ( 45812 PWs)   bands (ev):

   -15.9275 -11.2453 -11.2453 -10.9374

     occupation numbers 
     1.0000   0.0000   0.0000   0.0000

 ------ SPIN DOWN ----------


          k = 0.0000 0.0000 0.0000 ( 45812 PWs)   bands (ev):

   -15.9275 -11.2453 -11.2453 -10.9374

     occupation numbers 
     1.0000   0.0000   0.0000   0.0000

     highest occupied, lowest unoccupied level (ev):   -15.9275  -11.2453
       I     D       A      Val   Target      Old      New
       1 1.000  -0.990    1.990    2.000    1.139    1.140
 Converged potential            1  with strength     1.14045586330059     

!    total energy              =      -1.27826778 Ry
     Harris-Foulkes estimate   =      -1.27827907 Ry
     estimated scf accuracy    <          2.7E-09 Ry

     The total energy is the sum of the following terms:

     one-electron contribution =      -1.32849559 Ry
     hartree contribution      =       1.22224827 Ry
     xc contribution           =      -0.92409277 Ry
     ewald contribution        =      -0.24792770 Ry
     CDFT correction           =       2.26950817 Ry

     total magnetization       =    -0.00 Bohr mag/cell
     absolute magnetization    =     0.00 Bohr mag/cell

     convergence has been achieved in   1 iterations

     Writing output data file left.save
 
     init_run     :     31.00s CPU      5.27s WALL (       1 calls)
     electrons    :    738.68s CPU    103.89s WALL (       7 calls)
     update_pot   :     59.93s CPU      8.48s WALL (       6 calls)

     Called by init_run:
     wfcinit      :     14.09s CPU      1.93s WALL (       1 calls)
     potinit      :     14.70s CPU      2.11s WALL (       1 calls)

     Called by electrons:
     c_bands      :    178.07s CPU     24.04s WALL (      34 calls)
     sum_band     :     83.39s CPU     11.26s WALL (      34 calls)
     v_of_rho     :    339.63s CPU     46.47s WALL (      40 calls)
     v_h          :     18.80s CPU      2.59s WALL (      40 calls)
     v_xc         :    320.82s CPU     43.88s WALL (      40 calls)
     mix_rho      :     72.38s CPU     12.68s WALL (      34 calls)

     Called by c_bands:
     init_us_2    :     15.23s CPU      2.19s WALL (     138 calls)
     regterg      :    141.10s CPU     18.90s WALL (      68 calls)

     Called by sum_band:

     Called by *egterg:
     h_psi        :    141.27s CPU     18.90s WALL (     212 calls)
     g_psi        :      0.61s CPU      0.09s WALL (     142 calls)
     rdiaghg      :      0.14s CPU      0.02s WALL (     196 calls)
     regterg:over :      3.53s CPU      0.48s WALL (     142 calls)
     regterg:upda :      1.83s CPU      0.25s WALL (     142 calls)
     regterg:last :      0.52s CPU      0.07s WALL (      73 calls)

     Called by h_psi:
     h_psi:vloc   :    130.07s CPU     17.38s WALL (     212 calls)
     h_psi:vnl    :     10.23s CPU      1.38s WALL (     212 calls)
     add_vuspsi   :      3.56s CPU      0.49s WALL (     212 calls)

     General routines
     calbec       :      6.63s CPU      0.89s WALL (     212 calls)
     fft          :    249.97s CPU     33.72s WALL (     909 calls)
     fftw         :    114.81s CPU     15.33s WALL (     912 calls)
 
     Parallel routines
     fft_scatter  :    129.89s CPU     17.59s WALL (    1821 calls)
 
     PWSCF        : 14m 9.69s CPU     2m 0.58s WALL

 
   This run was terminated on:  13:25:21  12Feb2016            

=------------------------------------------------------------------------------=
   JOB DONE.
=------------------------------------------------------------------------------=
