
     Program PWSCF v.5.1.1 starts on 12Feb2016 at 16:14:57 

     This program is part of the open-source Quantum ESPRESSO suite
     for quantum simulation of materials; please cite
         "P. Giannozzi et al., J. Phys.:Condens. Matter 21 395502 (2009);
          URL http://www.quantum-espresso.org", 
     in publications or presentations arising from this work. More details at
     http://www.quantum-espresso.org/quote

     Parallel version (MPI & OpenMP), running on       8 processor cores
     Number of MPI processes:                 1
     Threads/MPI process:                     8
     Reading input from left.in
 Reading EPCDFT CARD. Printing based upon belief that input should be reproducab
 le from output.
     Reading   1 constraint(s); tolerance:    0.020000 max change in field 0.00
          constraint           type   A   A   D   D      T      L
                   1  delta_charge    1   1   2   2 2.0000 1.1360

     Current dimensions of program PWSCF are:
     Max number of different atomic species (ntypx) = 10
     Max number of k-points (npk) =  40000
     Max angular momentum in pseudopotentials (lmaxx) =  3
               file H.pbe-mt_fhi.UPF: wavefunction(s)  2p 4f renormalized

     gamma-point specific algorithms are used

     Subspace diagonalization in iterative solution of the eigenvalue problem:
     a serial algorithm will be used

 
     G-vector sticks info
     --------------------
     sticks:   dense  smooth     PW     G-vecs:    dense   smooth      PW
     Sum        9809    9809   2449               732287   732287   91623
     Tot        4905    4905   1225
 
     Generating pointlists ...
     new r_m :   0.1719 (alat units)  3.8976 (a.u.) for type    1


     bravais-lattice index     =            1
     lattice parameter (alat)  =      22.6767  a.u.
     unit-cell volume          =   11661.1222 (a.u.)^3
     number of atoms/cell      =            2
     number of atomic types    =            1
     number of electrons       =         2.00 (up:   1.00, down:   1.00)
     number of Kohn-Sham states=            4
     kinetic-energy cutoff     =      60.0000  Ry
     charge density cutoff     =     240.0000  Ry
     convergence threshold     =      1.0E-06
     mixing beta               =       0.3000
     number of iterations used =            8  plain     mixing
     Exchange-correlation      = PBE ( 1  4  3  4 0 0)
     nstep                     =           50


     celldm(1)=  22.676714  celldm(2)=   0.000000  celldm(3)=   0.000000
     celldm(4)=   0.000000  celldm(5)=   0.000000  celldm(6)=   0.000000

     crystal axes: (cart. coord. in units of alat)
               a(1) = (   1.000000   0.000000   0.000000 )  
               a(2) = (   0.000000   1.000000   0.000000 )  
               a(3) = (   0.000000   0.000000   1.000000 )  

     reciprocal axes: (cart. coord. in units 2 pi/alat)
               b(1) = (  1.000000  0.000000  0.000000 )  
               b(2) = (  0.000000  1.000000  0.000000 )  
               b(3) = (  0.000000  0.000000  1.000000 )  


     PseudoPot. # 1 for  H read from file:
     ../pseudo/H.pbe-mt_fhi.UPF
     MD5 check sum: a19bd5488733b3d98581df861506e80d
     Pseudo is Norm-conserving, Zval =  1.0
     Generated using FHI98PP, converted with fhi2upf.x v.5.0.2
     Using radial grid of  387 points,  3 beta functions with: 
                l(1) =   0
                l(2) =   1
                l(3) =   3

     atomic species   valence    mass     pseudopotential
        H              1.00     1.00794      H( 1.00)

     Starting magnetic structure 
     atomic species   magnetization
        H            0.000

     No symmetry found


                                    s                        frac. trans.

      isym =  1     identity                                     

 cryst.   s( 1) = (     1          0          0      )
                  (     0          1          0      )
                  (     0          0          1      )

 cart.    s( 1) = (  1.0000000  0.0000000  0.0000000 )
                  (  0.0000000  1.0000000  0.0000000 )
                  (  0.0000000  0.0000000  1.0000000 )


     point group C_1 (1)    
     there are  1 classes
     the character table:

       E    
A      1.00

     the symmetry operations in each class:
     E        1

   Cartesian axes

     site n.     atom                  positions (alat units)
         1           H   tau(   1) = (   0.0000000   0.0000000   0.0000000  )
         2           H   tau(   2) = (   0.4166667   0.0000000   0.0000000  )

   Crystallographic axes

     site n.     atom                  positions (cryst. coord.)
         1           H   tau(   1) = (  0.0000000  0.0000000  0.0000000  )
         2           H   tau(   2) = (  0.4166667  0.0000000  0.0000000  )

     number of k points=     2
                       cart. coord. in units 2pi/alat
        k(    1) = (   0.0000000   0.0000000   0.0000000), wk =   1.0000000
        k(    2) = (   0.0000000   0.0000000   0.0000000), wk =   1.0000000

                       cryst. coord.
        k(    1) = (   0.0000000   0.0000000   0.0000000), wk =   1.0000000
        k(    2) = (   0.0000000   0.0000000   0.0000000), wk =   1.0000000

     Dense  grid:   366144 G-vectors     FFT dimensions: ( 120, 120, 120)

     Largest allocated arrays     est. size (Mb)     dimensions
        Kohn-Sham Wavefunctions         2.80 Mb     (   45812,    4)
        NL pseudopotentials            15.38 Mb     (   45812,   22)
        Each V/rho on FFT grid         52.73 Mb     ( 1728000,   2)
        Each G-vector array             2.79 Mb     (  366144)
        G-vector shells                 0.02 Mb     (    2609)
     Largest temporary arrays     est. size (Mb)     dimensions
        Auxiliary wavefunctions         5.59 Mb     (   45812,   16)
        Each subspace H/S matrix        0.00 Mb     (      16,   16)
        Each <psi_i|beta_j> matrix      0.00 Mb     (      22,    4)
        Arrays for rho mixing         210.94 Mb     ( 1728000,    8)

     Initial potential from superposition of free atoms

     starting charge    1.99998, renormalised to    2.00000

     negative rho (up, down):  3.129E-05 3.129E-05
     Starting wfc are   32 randomized atomic wfcs

     total cpu time spent up to now is        5.3 secs

     per-process dynamical memory:   471.7 Mb

     Self-consistent Calculation

     iteration #  1     ecut=    60.00 Ry     beta=0.30
     Davidson diagonalization with overlap
     ethr =  1.00E-02,  avg # of iterations =  4.0

     negative rho (up, down):  2.109E-05 2.131E-05
 
     Magnetic moment per site:
     atom:    1    charge:    1.2743    magn:   -0.0001    constr:    0.0000
     atom:    2    charge:    0.6857    magn:    0.0000    constr:    0.0000

     total cpu time spent up to now is        8.9 secs

     total energy              =      -1.46366463 Ry
     Harris-Foulkes estimate   =      -4.10188384 Ry
     estimated scf accuracy    <       0.90875105 Ry

     total magnetization       =    -0.00 Bohr mag/cell
     absolute magnetization    =     0.01 Bohr mag/cell

     iteration #  2     ecut=    60.00 Ry     beta=0.30
     Davidson diagonalization with overlap
     ethr =  1.00E-02,  avg # of iterations =  1.0

     negative rho (up, down):  2.863E-06 3.397E-06
 
     Magnetic moment per site:
     atom:    1    charge:    1.7967    magn:    0.0000    constr:    0.0000
     atom:    2    charge:    0.1502    magn:   -0.0000    constr:    0.0000

     total cpu time spent up to now is       11.9 secs

     total energy              =      -1.21627171 Ry
     Harris-Foulkes estimate   =      -3.06522839 Ry
     estimated scf accuracy    <       0.37971682 Ry

     total magnetization       =     0.00 Bohr mag/cell
     absolute magnetization    =     0.00 Bohr mag/cell

     iteration #  3     ecut=    60.00 Ry     beta=0.30
     Davidson diagonalization with overlap
     ethr =  1.00E-02,  avg # of iterations =  2.0

     negative rho (up, down):  2.858E-06 3.375E-06
 
     Magnetic moment per site:
     atom:    1    charge:    1.7857    magn:    0.0001    constr:    0.0000
     atom:    2    charge:    0.1537    magn:   -0.0000    constr:    0.0000

     total cpu time spent up to now is       14.9 secs

     total energy              =      -1.28827055 Ry
     Harris-Foulkes estimate   =      -1.62988009 Ry
     estimated scf accuracy    <       0.07134556 Ry

     total magnetization       =     0.00 Bohr mag/cell
     absolute magnetization    =     0.00 Bohr mag/cell

     iteration #  4     ecut=    60.00 Ry     beta=0.30
     Davidson diagonalization with overlap
     ethr =  3.57E-03,  avg # of iterations =  5.5

     negative rho (up, down):  1.216E-03 1.996E-03
 
     Magnetic moment per site:
     atom:    1    charge:    1.7936    magn:   -0.0029    constr:    0.0000
     atom:    2    charge:    0.0652    magn:    0.0000    constr:    0.0000

     total cpu time spent up to now is       18.1 secs

     total energy              =      -1.32872852 Ry
     Harris-Foulkes estimate   =      -1.63762228 Ry
     estimated scf accuracy    <       0.06211252 Ry

     total magnetization       =    -0.00 Bohr mag/cell
     absolute magnetization    =     0.01 Bohr mag/cell

     iteration #  5     ecut=    60.00 Ry     beta=0.30
     Davidson diagonalization with overlap
     ethr =  3.11E-03,  avg # of iterations =  1.0

     negative rho (up, down):  9.935E-02 9.978E-02
 
     Magnetic moment per site:
     atom:    1    charge:    2.1606    magn:    0.0014    constr:    0.0000
     atom:    2    charge:    0.0015    magn:   -0.0001    constr:    0.0000

     total cpu time spent up to now is       20.8 secs

     total energy              =      -1.32984712 Ry
     Harris-Foulkes estimate   =      -1.48276438 Ry
     estimated scf accuracy    <       0.21933076 Ry

     total magnetization       =    -0.00 Bohr mag/cell
     absolute magnetization    =     0.04 Bohr mag/cell

     iteration #  6     ecut=    60.00 Ry     beta=0.30
     Davidson diagonalization with overlap
     ethr =  3.11E-03,  avg # of iterations =  1.0

     negative rho (up, down):  1.640E-01 1.633E-01
 
     Magnetic moment per site:
     atom:    1    charge:    2.2847    magn:    0.0027    constr:    0.0000
     atom:    2    charge:    0.0012    magn:   -0.0001    constr:    0.0000

     total cpu time spent up to now is       23.5 secs

     total energy              =      -1.36643411 Ry
     Harris-Foulkes estimate   =      -1.30954645 Ry
     estimated scf accuracy    <       0.10100517 Ry

     total magnetization       =     0.00 Bohr mag/cell
     absolute magnetization    =     0.01 Bohr mag/cell

     iteration #  7     ecut=    60.00 Ry     beta=0.30
     Davidson diagonalization with overlap
     ethr =  3.11E-03,  avg # of iterations =  1.0

     negative rho (up, down):  1.869E-01 1.853E-01
 
     Magnetic moment per site:
     atom:    1    charge:    2.3277    magn:    0.0038    constr:    0.0000
     atom:    2    charge:    0.0012    magn:   -0.0001    constr:    0.0000

     total cpu time spent up to now is       26.4 secs

     total energy              =      -1.39186061 Ry
     Harris-Foulkes estimate   =      -1.34135517 Ry
     estimated scf accuracy    <       0.18259153 Ry

     total magnetization       =    -0.00 Bohr mag/cell
     absolute magnetization    =     0.02 Bohr mag/cell

     iteration #  8     ecut=    60.00 Ry     beta=0.30
     Davidson diagonalization with overlap
     ethr =  3.11E-03,  avg # of iterations =  1.0

     negative rho (up, down):  2.575E-01 2.558E-01
 
     Magnetic moment per site:
     atom:    1    charge:    2.4575    magn:    0.0039    constr:    0.0000
     atom:    2    charge:    0.0014    magn:   -0.0001    constr:    0.0000

     total cpu time spent up to now is       29.2 secs
       I     D       A      Val   Target      Old      New
       1 0.996  -1.974    2.012    2.000    1.136    1.135

     total energy              =      -1.45069222 Ry
     Harris-Foulkes estimate   =      -1.35705281 Ry
     estimated scf accuracy    <       0.22636862 Ry

     total magnetization       =    -0.00 Bohr mag/cell
     absolute magnetization    =     0.03 Bohr mag/cell

     iteration #  9     ecut=    60.00 Ry     beta=0.30
     Davidson diagonalization with overlap
     ethr =  3.11E-03,  avg # of iterations =  1.0

     negative rho (up, down):  1.682E-01 1.736E-01
 
     Magnetic moment per site:
     atom:    1    charge:    2.2932    magn:   -0.0035    constr:    0.0000
     atom:    2    charge:    0.0018    magn:   -0.0000    constr:    0.0000

     total cpu time spent up to now is       32.4 secs

     total energy              =      -1.37949702 Ry
     Harris-Foulkes estimate   =      -1.41285020 Ry
     estimated scf accuracy    <       0.38797668 Ry

     total magnetization       =     0.00 Bohr mag/cell
     absolute magnetization    =     0.05 Bohr mag/cell

     iteration # 10     ecut=    60.00 Ry     beta=0.30
     Davidson diagonalization with overlap
     ethr =  3.11E-03,  avg # of iterations =  1.0

     negative rho (up, down):  3.039E-04 1.019E-03
 
     Magnetic moment per site:
     atom:    1    charge:    1.7362    magn:   -0.0280    constr:    0.0000
     atom:    2    charge:    0.0001    magn:    0.0003    constr:    0.0000

     total cpu time spent up to now is       35.3 secs

     total energy              =      -1.24313575 Ry
     Harris-Foulkes estimate   =      -1.34548718 Ry
     estimated scf accuracy    <       0.18866423 Ry

     total magnetization       =     0.00 Bohr mag/cell
     absolute magnetization    =     0.02 Bohr mag/cell

     iteration # 11     ecut=    60.00 Ry     beta=0.30
     Davidson diagonalization with overlap
     ethr =  3.11E-03,  avg # of iterations =  2.5

     negative rho (up, down):  1.880E-04 4.900E-04
 
     Magnetic moment per site:
     atom:    1    charge:    1.7160    magn:   -0.0186    constr:    0.0000
     atom:    2    charge:   -0.0001    magn:    0.0002    constr:    0.0000

     total cpu time spent up to now is       38.4 secs

     total energy              =      -1.27601733 Ry
     Harris-Foulkes estimate   =      -1.28064165 Ry
     estimated scf accuracy    <       0.00333465 Ry

     total magnetization       =     0.00 Bohr mag/cell
     absolute magnetization    =     0.02 Bohr mag/cell

     iteration # 12     ecut=    60.00 Ry     beta=0.30
     Davidson diagonalization with overlap
     ethr =  1.67E-04,  avg # of iterations =  9.0

     negative rho (up, down):  1.199E-03 2.436E-03
 
     Magnetic moment per site:
     atom:    1    charge:    1.8671    magn:   -0.0120    constr:    0.0000
     atom:    2    charge:    0.0003    magn:    0.0001    constr:    0.0000

     total cpu time spent up to now is       42.5 secs

     total energy              =      -1.27669614 Ry
     Harris-Foulkes estimate   =      -1.28082791 Ry
     estimated scf accuracy    <       0.00306909 Ry

     total magnetization       =     0.00 Bohr mag/cell
     absolute magnetization    =     0.02 Bohr mag/cell

     iteration # 13     ecut=    60.00 Ry     beta=0.30
     Davidson diagonalization with overlap
     ethr =  1.53E-04,  avg # of iterations =  2.0

     negative rho (up, down):  1.045E-03 1.896E-03
 
     Magnetic moment per site:
     atom:    1    charge:    1.8756    magn:   -0.0088    constr:    0.0000
     atom:    2    charge:    0.0003    magn:    0.0000    constr:    0.0000

     total cpu time spent up to now is       45.6 secs

     total energy              =      -1.27811118 Ry
     Harris-Foulkes estimate   =      -1.27647953 Ry
     estimated scf accuracy    <       0.00156473 Ry

     total magnetization       =    -0.00 Bohr mag/cell
     absolute magnetization    =     0.01 Bohr mag/cell

     iteration # 14     ecut=    60.00 Ry     beta=0.30
     Davidson diagonalization with overlap
     ethr =  7.82E-05,  avg # of iterations =  1.0

     negative rho (up, down):  1.743E-04 1.743E-04
 
     Magnetic moment per site:
     atom:    1    charge:    1.8693    magn:   -0.0027    constr:    0.0000
     atom:    2    charge:    0.0002    magn:   -0.0000    constr:    0.0000

     total cpu time spent up to now is       48.8 secs

     total energy              =      -1.27906146 Ry
     Harris-Foulkes estimate   =      -1.27623416 Ry
     estimated scf accuracy    <       0.00220048 Ry

     total magnetization       =     0.00 Bohr mag/cell
     absolute magnetization    =     0.01 Bohr mag/cell

     iteration # 15     ecut=    60.00 Ry     beta=0.30
     Davidson diagonalization with overlap
     ethr =  7.82E-05,  avg # of iterations =  1.0

     negative rho (up, down):  6.243E-05 2.871E-05
 
     Magnetic moment per site:
     atom:    1    charge:    1.8631    magn:   -0.0017    constr:    0.0000
     atom:    2    charge:    0.0002    magn:   -0.0000    constr:    0.0000

     total cpu time spent up to now is       51.7 secs

     total energy              =      -1.27913523 Ry
     Harris-Foulkes estimate   =      -1.27640537 Ry
     estimated scf accuracy    <       0.00227402 Ry

     total magnetization       =    -0.00 Bohr mag/cell
     absolute magnetization    =     0.00 Bohr mag/cell

     iteration # 16     ecut=    60.00 Ry     beta=0.30
     Davidson diagonalization with overlap
     ethr =  7.82E-05,  avg # of iterations =  1.0

     negative rho (up, down):  1.634E-05 4.041E-06
 
     Magnetic moment per site:
     atom:    1    charge:    1.8546    magn:   -0.0011    constr:    0.0000
     atom:    2    charge:    0.0001    magn:   -0.0000    constr:    0.0000

     total cpu time spent up to now is       54.6 secs

     total energy              =      -1.27909069 Ry
     Harris-Foulkes estimate   =      -1.27647545 Ry
     estimated scf accuracy    <       0.00185474 Ry

     total magnetization       =    -0.00 Bohr mag/cell
     absolute magnetization    =     0.00 Bohr mag/cell

     iteration # 17     ecut=    60.00 Ry     beta=0.30
     Davidson diagonalization with overlap
     ethr =  7.82E-05,  avg # of iterations =  1.0

     negative rho (up, down):  6.764E-06 3.132E-06
 
     Magnetic moment per site:
     atom:    1    charge:    1.8481    magn:   -0.0009    constr:    0.0000
     atom:    2    charge:    0.0002    magn:   -0.0000    constr:    0.0000

     total cpu time spent up to now is       57.5 secs

     total energy              =      -1.27886835 Ry
     Harris-Foulkes estimate   =      -1.27669261 Ry
     estimated scf accuracy    <       0.00105315 Ry

     total magnetization       =    -0.00 Bohr mag/cell
     absolute magnetization    =     0.00 Bohr mag/cell

     iteration # 18     ecut=    60.00 Ry     beta=0.30
     Davidson diagonalization with overlap
     ethr =  5.27E-05,  avg # of iterations =  1.0

     negative rho (up, down):  3.379E-06 1.428E-06
 
     Magnetic moment per site:
     atom:    1    charge:    1.8502    magn:   -0.0007    constr:    0.0000
     atom:    2    charge:    0.0003    magn:   -0.0000    constr:    0.0000

     total cpu time spent up to now is       60.4 secs
       I     D       A      Val   Target      Old      New
       1 0.999  -0.992    1.991    2.000    1.135    1.135

     total energy              =      -1.27904074 Ry
     Harris-Foulkes estimate   =      -1.27701115 Ry
     estimated scf accuracy    <       0.00056077 Ry

     total magnetization       =    -0.00 Bohr mag/cell
     absolute magnetization    =     0.00 Bohr mag/cell

     iteration # 19     ecut=    60.00 Ry     beta=0.30
     Davidson diagonalization with overlap
     ethr =  2.80E-05,  avg # of iterations =  1.0

     negative rho (up, down):  4.131E-06 2.910E-06
 
     Magnetic moment per site:
     atom:    1    charge:    1.8186    magn:   -0.0002    constr:    0.0000
     atom:    2    charge:    0.0006    magn:   -0.0000    constr:    0.0000

     total cpu time spent up to now is       63.6 secs

     total energy              =      -1.27882785 Ry
     Harris-Foulkes estimate   =      -1.27736072 Ry
     estimated scf accuracy    <       0.00104108 Ry

     total magnetization       =     0.00 Bohr mag/cell
     absolute magnetization    =     0.00 Bohr mag/cell

     iteration # 20     ecut=    60.00 Ry     beta=0.30
     Davidson diagonalization with overlap
     ethr =  2.80E-05,  avg # of iterations =  1.0

     negative rho (up, down):  2.270E-06 1.622E-06
 
     Magnetic moment per site:
     atom:    1    charge:    1.8230    magn:   -0.0007    constr:    0.0000
     atom:    2    charge:    0.0003    magn:   -0.0000    constr:    0.0000

     total cpu time spent up to now is       66.7 secs

     total energy              =      -1.27858254 Ry
     Harris-Foulkes estimate   =      -1.27928986 Ry
     estimated scf accuracy    <       0.00013627 Ry

     total magnetization       =    -0.00 Bohr mag/cell
     absolute magnetization    =     0.00 Bohr mag/cell

     iteration # 21     ecut=    60.00 Ry     beta=0.30
     Davidson diagonalization with overlap
     ethr =  6.81E-06,  avg # of iterations =  4.5

     negative rho (up, down):  6.927E-07 3.904E-07
 
     Magnetic moment per site:
     atom:    1    charge:    1.8205    magn:   -0.0005    constr:    0.0000
     atom:    2    charge:    0.0003    magn:   -0.0000    constr:    0.0000

     total cpu time spent up to now is       70.2 secs

     total energy              =      -1.27826381 Ry
     Harris-Foulkes estimate   =      -1.27842775 Ry
     estimated scf accuracy    <       0.00000739 Ry

     total magnetization       =    -0.00 Bohr mag/cell
     absolute magnetization    =     0.00 Bohr mag/cell

     iteration # 22     ecut=    60.00 Ry     beta=0.30
     Davidson diagonalization with overlap
     ethr =  3.70E-07,  avg # of iterations =  1.5
 
     Magnetic moment per site:
     atom:    1    charge:    1.8198    magn:   -0.0001    constr:    0.0000
     atom:    2    charge:    0.0001    magn:    0.0000    constr:    0.0000

     total cpu time spent up to now is       72.7 secs

     End of self-consistent calculation

 ------ SPIN UP ------------


          k = 0.0000 0.0000 0.0000 ( 45812 PWs)   bands (ev):

   -15.8539 -11.1779 -11.1779 -10.8716

     occupation numbers 
     1.0000   0.0000   0.0000   0.0000

 ------ SPIN DOWN ----------


          k = 0.0000 0.0000 0.0000 ( 45812 PWs)   bands (ev):

   -15.8556 -11.1773 -11.1768 -10.8722

     occupation numbers 
     1.0000   0.0000   0.0000   0.0000

     highest occupied, lowest unoccupied level (ev):   -15.8539  -11.1779
       I     D       A      Val   Target      Str
       1 1.000  -0.990    1.990    2.000    1.135

!    total energy              =      -1.27832322 Ry
     Harris-Foulkes estimate   =      -1.27859990 Ry
     estimated scf accuracy    <       0.00000085 Ry

     The total energy is the sum of the following terms:

     one-electron contribution =      -1.32820817 Ry
     hartree contribution      =       1.22156303 Ry
     xc contribution           =      -0.92375037 Ry
     ewald contribution        =      -0.24792770 Ry
     CDFT correction           =       2.25944695 Ry

     total magnetization       =    -0.00 Bohr mag/cell
     absolute magnetization    =     0.00 Bohr mag/cell

     convergence has been achieved in  22 iterations

     Forces acting on atoms (Ry/au):

           1           1           1
           2           2           2
 atom            1 dens    148.184709529019     
  shifted atom            1 dens    148.184709529019     
  shifted atom            1 dens    148.184709529019     
  shifted atom            1 dens    148.184709529019     
 atom            2 dens    148.184709529019     
  shifted atom            2 dens    148.184709529019     
  shifted atom            2 dens    148.184709529019     
  shifted atom            2 dens    148.184709529019     
     atom    1 type  1   force =     0.00626030    0.00000439    0.00000676
     atom    2 type  1   force =    -0.00626030   -0.00000439   -0.00000676
     The non-local contrib.  to forces
     atom    1 type  1   force =     0.00044698   -0.00000001    0.00000095
     atom    2 type  1   force =    -0.00000000    0.00000000    0.00000000
     The ionic contribution  to forces
     atom    1 type  1   force =    -0.01170233    0.00000000    0.00000000
     atom    2 type  1   force =     0.01170233   -0.00000000   -0.00000000
     The local contribution  to forces
     atom    1 type  1   force =     0.01033179    0.00002864    0.00003447
     atom    2 type  1   force =    -0.02246007    0.00000020    0.00000023
     The core correction contribution to forces
     atom    1 type  1   force =     0.00000000    0.00000000    0.00000000
     atom    2 type  1   force =     0.00000000    0.00000000    0.00000000
     The Hubbard contrib.    to forces
     atom    1 type  1   force =     0.00000000    0.00000000    0.00000000
     atom    2 type  1   force =     0.00000000    0.00000000    0.00000000
     The SCF correction term to forces
     atom    1 type  1   force =     0.00331285   -0.00002758   -0.00002783
     atom    2 type  1   force =    -0.00001677   -0.00000901   -0.00000731
     The CDFT correction term to forces
     atom    1 type  1   force =     0.00601349   -0.00000096   -0.00000100
     atom    2 type  1   force =     0.00665671    0.00000012    0.00000015

     Total force =     0.008853     Total SCF correction =     0.003313

     Total CDFT Force =     0.008971
     SCF correction compared to forces is large: reduce conv_thr to get better values

     BFGS Geometry Optimization

     number of scf cycles    =   1
     number of bfgs steps    =   0

     energy   new            =      -1.2783232192 Ry

     new trust radius        =       0.0062603053 bohr
     new conv_thr            =       0.0000010000 Ry


ATOMIC_POSITIONS (angstrom)
H        0.003312808   0.000002323   0.000003578
H        4.996687192  -0.000002323  -0.000003578



     Writing output data file left.save
     NEW-OLD atomic charge density approx. for the potential

     negative rho (up, down):  1.427E-03 1.443E-03

     total cpu time spent up to now is       78.0 secs

     per-process dynamical memory:   421.8 Mb

     Self-consistent Calculation

     iteration #  1     ecut=    60.00 Ry     beta=0.30
     Davidson diagonalization with overlap
     ethr =  1.00E-06,  avg # of iterations =  2.0

     negative rho (up, down):  9.992E-04 1.010E-03
 
     Magnetic moment per site:
     atom:    1    charge:    1.8201    magn:   -0.0001    constr:    0.0000
     atom:    2    charge:    0.0001    magn:    0.0000    constr:    0.0000

     total cpu time spent up to now is       81.6 secs

     total energy              =      -1.27835864 Ry
     Harris-Foulkes estimate   =      -1.27836914 Ry
     estimated scf accuracy    <       0.00000718 Ry

     total magnetization       =     0.00 Bohr mag/cell
     absolute magnetization    =     0.00 Bohr mag/cell

     iteration #  2     ecut=    60.00 Ry     beta=0.30
     Davidson diagonalization with overlap
     ethr =  3.59E-07,  avg # of iterations =  1.0

     negative rho (up, down):  2.080E-04 2.103E-04
 
     Magnetic moment per site:
     atom:    1    charge:    1.8203    magn:   -0.0000    constr:    0.0000
     atom:    2    charge:    0.0001    magn:    0.0000    constr:    0.0000

     total cpu time spent up to now is       84.5 secs

     total energy              =      -1.27838756 Ry
     Harris-Foulkes estimate   =      -1.27836938 Ry
     estimated scf accuracy    <       0.00000314 Ry

     total magnetization       =     0.00 Bohr mag/cell
     absolute magnetization    =     0.00 Bohr mag/cell

     iteration #  3     ecut=    60.00 Ry     beta=0.30
     Davidson diagonalization with overlap
     ethr =  1.57E-07,  avg # of iterations =  1.0
 
     Magnetic moment per site:
     atom:    1    charge:    1.8201    magn:   -0.0000    constr:    0.0000
     atom:    2    charge:    0.0001    magn:    0.0000    constr:    0.0000

     total cpu time spent up to now is       87.3 secs

     End of self-consistent calculation

 ------ SPIN UP ------------


          k = 0.0000 0.0000 0.0000 ( 45812 PWs)   bands (ev):

   -15.8575 -11.1785 -11.1785 -10.8742

     occupation numbers 
     1.0000   0.0000   0.0000   0.0000

 ------ SPIN DOWN ----------


          k = 0.0000 0.0000 0.0000 ( 45812 PWs)   bands (ev):

   -15.8577 -11.1784 -11.1784 -10.8743

     occupation numbers 
     1.0000   0.0000   0.0000   0.0000

     highest occupied, lowest unoccupied level (ev):   -15.8575  -11.1785
       I     D       A      Val   Target      Str
       1 1.000  -0.990    1.990    2.000    1.135

!    total energy              =      -1.27840021 Ry
     Harris-Foulkes estimate   =      -1.27838599 Ry
     estimated scf accuracy    <       0.00000017 Ry

     The total energy is the sum of the following terms:

     one-electron contribution =      -1.32877640 Ry
     hartree contribution      =       1.22225774 Ry
     xc contribution           =      -0.92410091 Ry
     ewald contribution        =      -0.24778064 Ry
     CDFT correction           =       2.25942297 Ry

     total magnetization       =     0.00 Bohr mag/cell
     absolute magnetization    =     0.00 Bohr mag/cell

     convergence has been achieved in   3 iterations

     Forces acting on atoms (Ry/au):

           1           1           1
           2           2           2
 atom            1 dens    148.184709529035     
  shifted atom            1 dens    148.184709529035     
  shifted atom            1 dens    148.184709529035     
  shifted atom            1 dens    148.184709529035     
 atom            2 dens    148.184709529034     
  shifted atom            2 dens    148.184709529034     
  shifted atom            2 dens    148.184709529034     
  shifted atom            2 dens    148.184709529034     
     atom    1 type  1   force =     0.00272365    0.00004296    0.00007104
     atom    2 type  1   force =    -0.00272365   -0.00004296   -0.00007104
     The non-local contrib.  to forces
     atom    1 type  1   force =     0.00043904    0.00000004    0.00000002
     atom    2 type  1   force =    -0.00000000   -0.00000000    0.00000000
     The ionic contribution  to forces
     atom    1 type  1   force =    -0.01178818    0.00000002    0.00000003
     atom    2 type  1   force =     0.01178818   -0.00000002   -0.00000003
     The local contribution  to forces
     atom    1 type  1   force =     0.01037424    0.00000128   -0.00000031
     atom    2 type  1   force =    -0.02262569    0.00000005    0.00000005
     The core correction contribution to forces
     atom    1 type  1   force =     0.00000000    0.00000000    0.00000000
     atom    2 type  1   force =     0.00000000    0.00000000    0.00000000
     The Hubbard contrib.    to forces
     atom    1 type  1   force =     0.00000000    0.00000000    0.00000000
     atom    2 type  1   force =     0.00000000    0.00000000    0.00000000
     The SCF correction term to forces
     atom    1 type  1   force =     0.00337094   -0.00000019    0.00000068
     atom    2 type  1   force =     0.00713363   -0.00008889   -0.00014583
     The CDFT correction term to forces
     atom    1 type  1   force =     0.00605483   -0.00000411   -0.00000416
     atom    2 type  1   force =     0.00670746   -0.00000003   -0.00000001

     Total force =     0.003854     Total SCF correction =     0.007892

     Total CDFT Force =     0.009036
     SCF correction compared to forces is large: reduce conv_thr to get better values

     number of scf cycles    =   2
     number of bfgs steps    =   1

     energy   old            =      -1.2783232192 Ry
     energy   new            =      -1.2784002115 Ry

     CASE: energy  _new < energy  _old

     new trust radius        =       0.0048267360 bohr
     new conv_thr            =       0.0000000100 Ry


ATOMIC_POSITIONS (angstrom)
H        0.005865822   0.000042571   0.000070128
H        4.994134178  -0.000042571  -0.000070128



     Writing output data file left.save
     NEW-OLD atomic charge density approx. for the potential

     negative rho (up, down):  1.122E-03 1.095E-03

     total cpu time spent up to now is       92.7 secs

     per-process dynamical memory:   421.8 Mb

     Self-consistent Calculation

     iteration #  1     ecut=    60.00 Ry     beta=0.30
     Davidson diagonalization with overlap
     ethr =  1.00E-06,  avg # of iterations =  2.0

     negative rho (up, down):  7.856E-04 7.669E-04
 
     Magnetic moment per site:
     atom:    1    charge:    1.8203    magn:   -0.0000    constr:    0.0000
     atom:    2    charge:    0.0001    magn:   -0.0000    constr:    0.0000

     total cpu time spent up to now is       95.5 secs

     total energy              =      -1.27843524 Ry
     Harris-Foulkes estimate   =      -1.27843523 Ry
     estimated scf accuracy    <       0.00000386 Ry

     total magnetization       =     0.00 Bohr mag/cell
     absolute magnetization    =     0.00 Bohr mag/cell

     iteration #  2     ecut=    60.00 Ry     beta=0.30
     Davidson diagonalization with overlap
     ethr =  1.93E-07,  avg # of iterations =  1.0

     negative rho (up, down):  1.415E-04 1.381E-04
 
     Magnetic moment per site:
     atom:    1    charge:    1.8204    magn:   -0.0000    constr:    0.0000
     atom:    2    charge:    0.0001    magn:   -0.0000    constr:    0.0000

     total cpu time spent up to now is       98.1 secs

     total energy              =      -1.27845857 Ry
     Harris-Foulkes estimate   =      -1.27843818 Ry
     estimated scf accuracy    <       0.00000179 Ry

     total magnetization       =     0.00 Bohr mag/cell
     absolute magnetization    =     0.00 Bohr mag/cell

     iteration #  3     ecut=    60.00 Ry     beta=0.30
     Davidson diagonalization with overlap
     ethr =  8.94E-08,  avg # of iterations =  1.0

     negative rho (up, down):  9.350E-06 9.121E-06
 
     Magnetic moment per site:
     atom:    1    charge:    1.8204    magn:   -0.0000    constr:    0.0000
     atom:    2    charge:    0.0001    magn:   -0.0000    constr:    0.0000

     total cpu time spent up to now is      100.7 secs

     total energy              =      -1.27846418 Ry
     Harris-Foulkes estimate   =      -1.27845637 Ry
     estimated scf accuracy    <       0.00000007 Ry

     total magnetization       =    -0.00 Bohr mag/cell
     absolute magnetization    =     0.00 Bohr mag/cell

     iteration #  4     ecut=    60.00 Ry     beta=0.30
     Davidson diagonalization with overlap
     ethr =  3.30E-09,  avg # of iterations =  3.0

     negative rho (up, down):  1.013E-06 9.849E-07
 
     Magnetic moment per site:
     atom:    1    charge:    1.8203    magn:   -0.0000    constr:    0.0000
     atom:    2    charge:    0.0001    magn:   -0.0000    constr:    0.0000

     total cpu time spent up to now is      103.7 secs

     total energy              =      -1.27847532 Ry
     Harris-Foulkes estimate   =      -1.27846162 Ry
     estimated scf accuracy    <       0.00000004 Ry

     total magnetization       =    -0.00 Bohr mag/cell
     absolute magnetization    =     0.00 Bohr mag/cell

     iteration #  5     ecut=    60.00 Ry     beta=0.30
     Davidson diagonalization with overlap
     ethr =  1.98E-09,  avg # of iterations =  1.0

     negative rho (up, down):  5.373E-07 5.212E-07
 
     Magnetic moment per site:
     atom:    1    charge:    1.8203    magn:   -0.0000    constr:    0.0000
     atom:    2    charge:    0.0001    magn:   -0.0000    constr:    0.0000

     total cpu time spent up to now is      106.4 secs

     total energy              =      -1.27847405 Ry
     Harris-Foulkes estimate   =      -1.27846516 Ry
     estimated scf accuracy    <       0.00000001 Ry

     total magnetization       =     0.00 Bohr mag/cell
     absolute magnetization    =     0.00 Bohr mag/cell

     iteration #  6     ecut=    60.00 Ry     beta=0.30
     Davidson diagonalization with overlap
     ethr =  6.26E-10,  avg # of iterations =  1.0
 
     Magnetic moment per site:
     atom:    1    charge:    1.8203    magn:   -0.0000    constr:    0.0000
     atom:    2    charge:    0.0001    magn:    0.0000    constr:    0.0000

     total cpu time spent up to now is      108.8 secs

     End of self-consistent calculation

 ------ SPIN UP ------------


          k = 0.0000 0.0000 0.0000 ( 45812 PWs)   bands (ev):

   -15.8597 -11.1779 -11.1779 -10.8747

     occupation numbers 
     1.0000   0.0000   0.0000   0.0000

 ------ SPIN DOWN ----------


          k = 0.0000 0.0000 0.0000 ( 45812 PWs)   bands (ev):

   -15.8598 -11.1779 -11.1778 -10.8747

     occupation numbers 
     1.0000   0.0000   0.0000   0.0000

     highest occupied, lowest unoccupied level (ev):   -15.8597  -11.1779
       I     D       A      Val   Target      Str
       1 1.000  -0.990    1.990    2.000    1.135

!    total energy              =      -1.27847378 Ry
     Harris-Foulkes estimate   =      -1.27846625 Ry
     estimated scf accuracy    <          9.6E-09 Ry

     The total energy is the sum of the following terms:

     one-electron contribution =      -1.32901053 Ry
     hartree contribution      =       1.22234064 Ry
     xc contribution           =      -0.92413731 Ry
     ewald contribution        =      -0.24766658 Ry
     CDFT correction           =       2.25938187 Ry

     total magnetization       =    -0.00 Bohr mag/cell
     absolute magnetization    =     0.00 Bohr mag/cell

     convergence has been achieved in   6 iterations

     Forces acting on atoms (Ry/au):

           1           1           1
           2           2           2
 atom            1 dens    148.184709529032     
  shifted atom            1 dens    148.184709529032     
  shifted atom            1 dens    148.184709529032     
  shifted atom            1 dens    148.184709529032     
 atom            2 dens    148.184709529033     
  shifted atom            2 dens    148.184709529033     
  shifted atom            2 dens    148.184709529033     
  shifted atom            2 dens    148.184709529033     
     atom    1 type  1   force =     0.00450345   -0.00002208   -0.00003102
     atom    2 type  1   force =    -0.00450345    0.00002208    0.00003102
     The non-local contrib.  to forces
     atom    1 type  1   force =     0.00044503    0.00000001   -0.00000003
     atom    2 type  1   force =    -0.00000000   -0.00000000   -0.00000000
     The ionic contribution  to forces
     atom    1 type  1   force =    -0.01185445    0.00000038    0.00000063
     atom    2 type  1   force =     0.01185445   -0.00000038   -0.00000063
     The local contribution  to forces
     atom    1 type  1   force =     0.01049729   -0.00000082   -0.00000152
     atom    2 type  1   force =    -0.02275797    0.00000073    0.00000120
     The core correction contribution to forces
     atom    1 type  1   force =     0.00000000    0.00000000    0.00000000
     atom    2 type  1   force =     0.00000000    0.00000000    0.00000000
     The Hubbard contrib.    to forces
     atom    1 type  1   force =     0.00000000    0.00000000    0.00000000
     atom    2 type  1   force =     0.00000000    0.00000000    0.00000000
     The SCF correction term to forces
     atom    1 type  1   force =     0.00339677    0.00000012    0.00000037
     atom    2 type  1   force =     0.00372708    0.00004173    0.00005899
     The CDFT correction term to forces
     atom    1 type  1   force =     0.00611075   -0.00000175   -0.00000201
     atom    2 type  1   force =     0.00676491    0.00000003   -0.00000007

     Total force =     0.006369     Total SCF correction =     0.005043

     Total CDFT Force =     0.009116
     SCF correction compared to forces is large: reduce conv_thr to get better values

     number of scf cycles    =   3
     number of bfgs steps    =   2

     energy   old            =      -1.2784002115 Ry
     energy   new            =      -1.2784737754 Ry

     CASE: energy  _new < energy  _old


     WARNING: bfgs curvature condition failed, Theta= 0.484
     new trust radius        =       0.0013838424 bohr
     new conv_thr            =       0.0000000100 Ry


ATOMIC_POSITIONS (angstrom)
H        0.006596833   0.000065320   0.000107082
H        4.993403167  -0.000065320  -0.000107082



     Writing output data file left.save
     NEW-OLD atomic charge density approx. for the potential

     negative rho (up, down):  3.177E-04 3.184E-04

     total cpu time spent up to now is      113.9 secs

     per-process dynamical memory:   421.8 Mb

     Self-consistent Calculation

     iteration #  1     ecut=    60.00 Ry     beta=0.30
     Davidson diagonalization with overlap
     ethr =  1.00E-06,  avg # of iterations =  1.0

     Threshold (ethr) on eigenvalues was too large:
     Diagonalizing with lowered threshold

     Davidson diagonalization with overlap
     ethr =  1.55E-08,  avg # of iterations =  2.0

     negative rho (up, down):  2.223E-04 2.227E-04
 
     Magnetic moment per site:
     atom:    1    charge:    1.8203    magn:   -0.0000    constr:    0.0000
     atom:    2    charge:    0.0001    magn:    0.0000    constr:    0.0000

     total cpu time spent up to now is      118.0 secs

     total energy              =      -1.27848360 Ry
     Harris-Foulkes estimate   =      -1.27848447 Ry
     estimated scf accuracy    <       0.00000034 Ry

     total magnetization       =    -0.00 Bohr mag/cell
     absolute magnetization    =     0.00 Bohr mag/cell

     iteration #  2     ecut=    60.00 Ry     beta=0.30
     Davidson diagonalization with overlap
     ethr =  1.68E-08,  avg # of iterations =  1.0

     negative rho (up, down):  3.851E-05 3.858E-05
 
     Magnetic moment per site:
     atom:    1    charge:    1.8204    magn:   -0.0000    constr:    0.0000
     atom:    2    charge:    0.0001    magn:    0.0000    constr:    0.0000

     total cpu time spent up to now is      120.9 secs

     total energy              =      -1.27848668 Ry
     Harris-Foulkes estimate   =      -1.27848500 Ry
     estimated scf accuracy    <       0.00000015 Ry

     total magnetization       =     0.00 Bohr mag/cell
     absolute magnetization    =     0.00 Bohr mag/cell

     iteration #  3     ecut=    60.00 Ry     beta=0.30
     Davidson diagonalization with overlap
     ethr =  7.43E-09,  avg # of iterations =  1.0
 
     Magnetic moment per site:
     atom:    1    charge:    1.8203    magn:   -0.0000    constr:    0.0000
     atom:    2    charge:    0.0001    magn:    0.0000    constr:    0.0000

     total cpu time spent up to now is      123.4 secs

     End of self-consistent calculation

 ------ SPIN UP ------------


          k = 0.0000 0.0000 0.0000 ( 45812 PWs)   bands (ev):

   -15.8596 -11.1775 -11.1774 -10.8744

     occupation numbers 
     1.0000   0.0000   0.0000   0.0000

 ------ SPIN DOWN ----------


          k = 0.0000 0.0000 0.0000 ( 45812 PWs)   bands (ev):

   -15.8597 -11.1775 -11.1774 -10.8745

     occupation numbers 
     1.0000   0.0000   0.0000   0.0000

     highest occupied, lowest unoccupied level (ev):   -15.8596  -11.1775
       I     D       A      Val   Target      Str
       1 1.000  -0.990    1.990    2.000    1.135

!    total energy              =      -1.27849013 Ry
     Harris-Foulkes estimate   =      -1.27848671 Ry
     estimated scf accuracy    <          7.4E-09 Ry

     The total energy is the sum of the following terms:

     one-electron contribution =      -1.32912110 Ry
     hartree contribution      =       1.22246161 Ry
     xc contribution           =      -0.92419684 Ry
     ewald contribution        =      -0.24763380 Ry
     CDFT correction           =       2.25937437 Ry

     total magnetization       =    -0.00 Bohr mag/cell
     absolute magnetization    =     0.00 Bohr mag/cell

     convergence has been achieved in   3 iterations

     Forces acting on atoms (Ry/au):

           1           1           1
           2           2           2
 atom            1 dens    148.184709529031     
  shifted atom            1 dens    148.184709529031     
  shifted atom            1 dens    148.184709529031     
  shifted atom            1 dens    148.184709529031     
 atom            2 dens    148.184709529033     
  shifted atom            2 dens    148.184709529033     
  shifted atom            2 dens    148.184709529033     
  shifted atom            2 dens    148.184709529033     
     atom    1 type  1   force =     0.00415220   -0.00006021   -0.00011910
     atom    2 type  1   force =    -0.00415220    0.00006021    0.00011910
     The non-local contrib.  to forces
     atom    1 type  1   force =     0.00044508   -0.00000011   -0.00000010
     atom    2 type  1   force =    -0.00000000   -0.00000000    0.00000000
     The ionic contribution  to forces
     atom    1 type  1   force =    -0.01187345    0.00000058    0.00000096
     atom    2 type  1   force =     0.01187345   -0.00000058   -0.00000096
     The local contribution  to forces
     atom    1 type  1   force =     0.01047881   -0.00000092   -0.00000210
     atom    2 type  1   force =    -0.02279340    0.00000116    0.00000186
     The core correction contribution to forces
     atom    1 type  1   force =     0.00000000    0.00000000    0.00000000
     atom    2 type  1   force =     0.00000000    0.00000000    0.00000000
     The Hubbard contrib.    to forces
     atom    1 type  1   force =     0.00000000    0.00000000    0.00000000
     atom    2 type  1   force =     0.00000000    0.00000000    0.00000000
     The SCF correction term to forces
     atom    1 type  1   force =     0.00341521    0.00000021    0.00000036
     atom    2 type  1   force =     0.00442651    0.00011612    0.00023285
     The CDFT correction term to forces
     atom    1 type  1   force =     0.00612115   -0.00000366   -0.00000383
     atom    2 type  1   force =     0.00677584   -0.00000017   -0.00000027

     Total force =     0.005875     Total SCF correction =     0.005597

     Total CDFT Force =     0.009131
     SCF correction compared to forces is large: reduce conv_thr to get better values

     number of scf cycles    =   4
     number of bfgs steps    =   3

     energy   old            =      -1.2784737754 Ry
     energy   new            =      -1.2784901320 Ry

     CASE: energy  _new < energy  _old


     WARNING: bfgs curvature condition failed, Theta= 0.869
     new trust radius        =       0.0020757637 bohr
     new conv_thr            =       0.0000000100 Ry


ATOMIC_POSITIONS (angstrom)
H        0.007695242   0.000074276   0.000105328
H        4.992304758  -0.000074276  -0.000105328



     Writing output data file left.save
     NEW-OLD atomic charge density approx. for the potential

     negative rho (up, down):  4.768E-04 4.758E-04

     total cpu time spent up to now is      128.4 secs

     per-process dynamical memory:   421.8 Mb

     Self-consistent Calculation

     iteration #  1     ecut=    60.00 Ry     beta=0.30
     Davidson diagonalization with overlap
     ethr =  1.00E-06,  avg # of iterations =  2.0

     Threshold (ethr) on eigenvalues was too large:
     Diagonalizing with lowered threshold

     Davidson diagonalization with overlap
     ethr =  3.53E-08,  avg # of iterations =  1.0

     negative rho (up, down):  3.337E-04 3.330E-04
 
     Magnetic moment per site:
     atom:    1    charge:    1.8204    magn:   -0.0000    constr:    0.0000
     atom:    2    charge:    0.0001    magn:   -0.0000    constr:    0.0000

     total cpu time spent up to now is      132.1 secs

     total energy              =      -1.27851106 Ry
     Harris-Foulkes estimate   =      -1.27850577 Ry
     estimated scf accuracy    <       0.00000070 Ry

     total magnetization       =     0.00 Bohr mag/cell
     absolute magnetization    =     0.00 Bohr mag/cell

     iteration #  2     ecut=    60.00 Ry     beta=0.30
     Davidson diagonalization with overlap
     ethr =  3.51E-08,  avg # of iterations =  1.0

     negative rho (up, down):  2.755E-05 2.749E-05
 
     Magnetic moment per site:
     atom:    1    charge:    1.8204    magn:   -0.0000    constr:    0.0000
     atom:    2    charge:    0.0001    magn:   -0.0000    constr:    0.0000

     total cpu time spent up to now is      134.6 secs

     total energy              =      -1.27851614 Ry
     Harris-Foulkes estimate   =      -1.27850862 Ry
     estimated scf accuracy    <       0.00000033 Ry

     total magnetization       =    -0.00 Bohr mag/cell
     absolute magnetization    =     0.00 Bohr mag/cell

     iteration #  3     ecut=    60.00 Ry     beta=0.30
     Davidson diagonalization with overlap
     ethr =  1.66E-08,  avg # of iterations =  1.0
 
     Magnetic moment per site:
     atom:    1    charge:    1.8204    magn:   -0.0000    constr:    0.0000
     atom:    2    charge:    0.0001    magn:    0.0000    constr:    0.0000

     total cpu time spent up to now is      136.9 secs

     End of self-consistent calculation

 ------ SPIN UP ------------


          k = 0.0000 0.0000 0.0000 ( 45812 PWs)   bands (ev):

   -15.8596 -11.1772 -11.1771 -10.8749

     occupation numbers 
     1.0000   0.0000   0.0000   0.0000

 ------ SPIN DOWN ----------


          k = 0.0000 0.0000 0.0000 ( 45812 PWs)   bands (ev):

   -15.8596 -11.1772 -11.1771 -10.8749

     occupation numbers 
     1.0000   0.0000   0.0000   0.0000

     highest occupied, lowest unoccupied level (ev):   -15.8596  -11.1772
       I     D       A      Val   Target      Str
       1 1.000  -0.990    1.990    2.000    1.135

!    total energy              =      -1.27851971 Ry
     Harris-Foulkes estimate   =      -1.27851579 Ry
     estimated scf accuracy    <          7.2E-09 Ry

     The total energy is the sum of the following terms:

     one-electron contribution =      -1.32923106 Ry
     hartree contribution      =       1.22252191 Ry
     xc contribution           =      -0.92422611 Ry
     ewald contribution        =      -0.24758445 Ry
     CDFT correction           =       2.25936165 Ry

     total magnetization       =    -0.00 Bohr mag/cell
     absolute magnetization    =     0.00 Bohr mag/cell

     convergence has been achieved in   3 iterations

     Forces acting on atoms (Ry/au):

           1           1           1
           2           2           2
 atom            1 dens    148.184709529030     
  shifted atom            1 dens    148.184709529030     
  shifted atom            1 dens    148.184709529030     
  shifted atom            1 dens    148.184709529030     
 atom            2 dens    148.184709529030     
  shifted atom            2 dens    148.184709529030     
  shifted atom            2 dens    148.184709529030     
  shifted atom            2 dens    148.184709529030     
     atom    1 type  1   force =     0.00427506    0.00009864   -0.00002382
     atom    2 type  1   force =    -0.00427506   -0.00009864    0.00002382
     The non-local contrib.  to forces
     atom    1 type  1   force =     0.00044604   -0.00000012   -0.00000014
     atom    2 type  1   force =    -0.00000000    0.00000000    0.00000000
     The ionic contribution  to forces
     atom    1 type  1   force =    -0.01190201    0.00000066    0.00000094
     atom    2 type  1   force =     0.01190201   -0.00000066   -0.00000094
     The local contribution  to forces
     atom    1 type  1   force =     0.01050225   -0.00000061   -0.00000083
     atom    2 type  1   force =    -0.02284739    0.00000131    0.00000185
     The core correction contribution to forces
     atom    1 type  1   force =     0.00000000    0.00000000    0.00000000
     atom    2 type  1   force =     0.00000000    0.00000000    0.00000000
     The Hubbard contrib.    to forces
     atom    1 type  1   force =     0.00000000    0.00000000    0.00000000
     atom    2 type  1   force =     0.00000000    0.00000000    0.00000000
     The SCF correction term to forces
     atom    1 type  1   force =     0.00343104    0.00000006   -0.00000015
     atom    2 type  1   force =     0.00421237   -0.00020273    0.00004184
     The CDFT correction term to forces
     atom    1 type  1   force =     0.00613385   -0.00000468   -0.00000472
     atom    2 type  1   force =     0.00679406    0.00000012   -0.00000001

     Total force =     0.006048     Total SCF correction =     0.005437

     Total CDFT Force =     0.009153
     SCF correction compared to forces is large: reduce conv_thr to get better values

     number of scf cycles    =   5
     number of bfgs steps    =   4

     energy   old            =      -1.2784901320 Ry
     energy   new            =      -1.2785197066 Ry

     CASE: energy  _new < energy  _old


     WARNING: bfgs curvature condition failed, Theta= 0.627
     uphill step: resetting bfgs history

     new trust radius        =       0.0031136455 bohr
     new conv_thr            =       0.0000000100 Ry


ATOMIC_POSITIONS (angstrom)
H        0.009342449   0.000112281   0.000096151
H        4.990657551  -0.000112281  -0.000096151



     Writing output data file left.save
     NEW-OLD atomic charge density approx. for the potential

     negative rho (up, down):  7.130E-04 7.176E-04

     total cpu time spent up to now is      141.8 secs

     per-process dynamical memory:   421.8 Mb

     Self-consistent Calculation

     iteration #  1     ecut=    60.00 Ry     beta=0.30
     Davidson diagonalization with overlap
     ethr =  1.00E-06,  avg # of iterations =  2.0

     Threshold (ethr) on eigenvalues was too large:
     Diagonalizing with lowered threshold

     Davidson diagonalization with overlap
     ethr =  7.95E-08,  avg # of iterations =  1.0

     negative rho (up, down):  4.991E-04 5.023E-04
 
     Magnetic moment per site:
     atom:    1    charge:    1.8204    magn:   -0.0000    constr:    0.0000
     atom:    2    charge:    0.0001    magn:    0.0000    constr:    0.0000

     total cpu time spent up to now is      145.5 secs

     total energy              =      -1.27854707 Ry
     Harris-Foulkes estimate   =      -1.27854273 Ry
     estimated scf accuracy    <       0.00000158 Ry

     total magnetization       =     0.00 Bohr mag/cell
     absolute magnetization    =     0.00 Bohr mag/cell

     iteration #  2     ecut=    60.00 Ry     beta=0.30
     Davidson diagonalization with overlap
     ethr =  7.91E-08,  avg # of iterations =  1.0

     negative rho (up, down):  4.698E-05 4.728E-05
 
     Magnetic moment per site:
     atom:    1    charge:    1.8205    magn:   -0.0000    constr:    0.0000
     atom:    2    charge:    0.0001    magn:    0.0000    constr:    0.0000

     total cpu time spent up to now is      148.1 secs

     total energy              =      -1.27855532 Ry
     Harris-Foulkes estimate   =      -1.27854597 Ry
     estimated scf accuracy    <       0.00000075 Ry

     total magnetization       =     0.00 Bohr mag/cell
     absolute magnetization    =     0.00 Bohr mag/cell

     iteration #  3     ecut=    60.00 Ry     beta=0.30
     Davidson diagonalization with overlap
     ethr =  3.73E-08,  avg # of iterations =  1.0

     negative rho (up, down):  1.438E-05 1.448E-05
 
     Magnetic moment per site:
     atom:    1    charge:    1.8205    magn:   -0.0000    constr:    0.0000
     atom:    2    charge:    0.0001    magn:    0.0000    constr:    0.0000

     total cpu time spent up to now is      150.7 secs

     total energy              =      -1.27856078 Ry
     Harris-Foulkes estimate   =      -1.27855494 Ry
     estimated scf accuracy    <       0.00000002 Ry

     total magnetization       =    -0.00 Bohr mag/cell
     absolute magnetization    =     0.00 Bohr mag/cell

     iteration #  4     ecut=    60.00 Ry     beta=0.30
     Davidson diagonalization with overlap
     ethr =  8.75E-10,  avg # of iterations =  2.0
 
     Magnetic moment per site:
     atom:    1    charge:    1.8205    magn:   -0.0000    constr:    0.0000
     atom:    2    charge:    0.0001    magn:    0.0000    constr:    0.0000

     total cpu time spent up to now is      153.1 secs

     End of self-consistent calculation

 ------ SPIN UP ------------


          k = 0.0000 0.0000 0.0000 ( 45812 PWs)   bands (ev):

   -15.8598 -11.1762 -11.1761 -10.8751

     occupation numbers 
     1.0000   0.0000   0.0000   0.0000

 ------ SPIN DOWN ----------


          k = 0.0000 0.0000 0.0000 ( 45812 PWs)   bands (ev):

   -15.8598 -11.1762 -11.1761 -10.8751

     occupation numbers 
     1.0000   0.0000   0.0000   0.0000

     highest occupied, lowest unoccupied level (ev):   -15.8598  -11.1762
       I     D       A      Val   Target      Str
       1 1.000  -0.990    1.990    2.000    1.135

!    total energy              =      -1.27856109 Ry
     Harris-Foulkes estimate   =      -1.27855820 Ry
     estimated scf accuracy    <          2.6E-09 Ry

     The total energy is the sum of the following terms:

     one-electron contribution =      -1.32941280 Ry
     hartree contribution      =       1.22264834 Ry
     xc contribution           =      -0.92428641 Ry
     ewald contribution        =      -0.24751022 Ry
     CDFT correction           =       2.25934052 Ry

     total magnetization       =     0.00 Bohr mag/cell
     absolute magnetization    =     0.00 Bohr mag/cell

     convergence has been achieved in   4 iterations

     Forces acting on atoms (Ry/au):

           1           1           1
           2           2           2
 atom            1 dens    148.184709529038     
  shifted atom            1 dens    148.184709529038     
  shifted atom            1 dens    148.184709529038     
  shifted atom            1 dens    148.184709529038     
 atom            2 dens    148.184709529039     
  shifted atom            2 dens    148.184709529039     
  shifted atom            2 dens    148.184709529039     
  shifted atom            2 dens    148.184709529039     
     atom    1 type  1   force =     0.00441244    0.00011129   -0.00002811
     atom    2 type  1   force =    -0.00441244   -0.00011129    0.00002811
     The non-local contrib.  to forces
     atom    1 type  1   force =     0.00044715   -0.00000002   -0.00000001
     atom    2 type  1   force =    -0.00000000    0.00000000    0.00000000
     The ionic contribution  to forces
     atom    1 type  1   force =    -0.01194488    0.00000100    0.00000086
     atom    2 type  1   force =     0.01194488   -0.00000100   -0.00000086
     The local contribution  to forces
     atom    1 type  1   force =     0.01054954   -0.00000159   -0.00000086
     atom    2 type  1   force =    -0.02292962    0.00000194    0.00000167
     The core correction contribution to forces
     atom    1 type  1   force =     0.00000000    0.00000000    0.00000000
     atom    2 type  1   force =     0.00000000    0.00000000    0.00000000
     The Hubbard contrib.    to forces
     atom    1 type  1   force =     0.00000000    0.00000000    0.00000000
     atom    2 type  1   force =     0.00000000    0.00000000    0.00000000
     The SCF correction term to forces
     atom    1 type  1   force =     0.00343955    0.00000012   -0.00000026
     atom    2 type  1   force =     0.00398831   -0.00022552    0.00005383
     The CDFT correction term to forces
     atom    1 type  1   force =     0.00616029   -0.00000159   -0.00000133
     atom    2 type  1   force =     0.00682321   -0.00000007   -0.00000003

     Total force =     0.006242     Total SCF correction =     0.005272

     Total CDFT Force =     0.009193
     SCF correction compared to forces is large: reduce conv_thr to get better values

     number of scf cycles    =   6
     number of bfgs steps    =   5

     energy   old            =      -1.2785197066 Ry
     energy   new            =      -1.2785610883 Ry

     CASE: energy  _new < energy  _old


     WARNING: bfgs curvature condition failed, Theta= 0.766
     new trust radius        =       0.0046704682 bohr
     new conv_thr            =       0.0000000100 Ry


ATOMIC_POSITIONS (angstrom)
H        0.011813599   0.000153450   0.000088274
H        4.988186401  -0.000153450  -0.000088274



     Writing output data file left.save
     NEW-OLD atomic charge density approx. for the potential

     negative rho (up, down):  1.080E-03 1.067E-03

     total cpu time spent up to now is      158.0 secs

     per-process dynamical memory:   421.8 Mb

     Self-consistent Calculation

     iteration #  1     ecut=    60.00 Ry     beta=0.30
     Davidson diagonalization with overlap
     ethr =  1.00E-06,  avg # of iterations =  2.0

     negative rho (up, down):  7.559E-04 7.469E-04
 
     Magnetic moment per site:
     atom:    1    charge:    1.8206    magn:   -0.0000    constr:    0.0000
     atom:    2    charge:    0.0001    magn:   -0.0000    constr:    0.0000

     total cpu time spent up to now is      160.8 secs

     total energy              =      -1.27859774 Ry
     Harris-Foulkes estimate   =      -1.27859533 Ry
     estimated scf accuracy    <       0.00000349 Ry

     total magnetization       =    -0.00 Bohr mag/cell
     absolute magnetization    =     0.00 Bohr mag/cell

     iteration #  2     ecut=    60.00 Ry     beta=0.30
     Davidson diagonalization with overlap
     ethr =  1.74E-07,  avg # of iterations =  1.0

     negative rho (up, down):  1.408E-04 1.391E-04
 
     Magnetic moment per site:
     atom:    1    charge:    1.8207    magn:   -0.0000    constr:    0.0000
     atom:    2    charge:    0.0001    magn:   -0.0000    constr:    0.0000

     total cpu time spent up to now is      163.4 secs

     total energy              =      -1.27862086 Ry
     Harris-Foulkes estimate   =      -1.27859892 Ry
     estimated scf accuracy    <       0.00000163 Ry

     total magnetization       =     0.00 Bohr mag/cell
     absolute magnetization    =     0.00 Bohr mag/cell

     iteration #  3     ecut=    60.00 Ry     beta=0.30
     Davidson diagonalization with overlap
     ethr =  8.13E-08,  avg # of iterations =  1.0

     negative rho (up, down):  6.721E-06 6.640E-06
 
     Magnetic moment per site:
     atom:    1    charge:    1.8206    magn:   -0.0000    constr:    0.0000
     atom:    2    charge:    0.0001    magn:   -0.0000    constr:    0.0000

     total cpu time spent up to now is      166.0 secs

     total energy              =      -1.27862462 Ry
     Harris-Foulkes estimate   =      -1.27861822 Ry
     estimated scf accuracy    <       0.00000006 Ry

     total magnetization       =    -0.00 Bohr mag/cell
     absolute magnetization    =     0.00 Bohr mag/cell

     iteration #  4     ecut=    60.00 Ry     beta=0.30
     Davidson diagonalization with overlap
     ethr =  3.00E-09,  avg # of iterations =  2.0

     negative rho (up, down):  1.008E-06 9.954E-07
 
     Magnetic moment per site:
     atom:    1    charge:    1.8206    magn:   -0.0000    constr:    0.0000
     atom:    2    charge:    0.0001    magn:   -0.0000    constr:    0.0000

     total cpu time spent up to now is      168.7 secs

     total energy              =      -1.27863220 Ry
     Harris-Foulkes estimate   =      -1.27862300 Ry
     estimated scf accuracy    <       0.00000002 Ry

     total magnetization       =     0.00 Bohr mag/cell
     absolute magnetization    =     0.00 Bohr mag/cell

     iteration #  5     ecut=    60.00 Ry     beta=0.30
     Davidson diagonalization with overlap
     ethr =  8.29E-10,  avg # of iterations =  1.0
 
     Magnetic moment per site:
     atom:    1    charge:    1.8206    magn:    0.0000    constr:    0.0000
     atom:    2    charge:    0.0001    magn:   -0.0000    constr:    0.0000

     total cpu time spent up to now is      171.0 secs

     End of self-consistent calculation

 ------ SPIN UP ------------


          k = 0.0000 0.0000 0.0000 ( 45812 PWs)   bands (ev):

   -15.8601 -11.1761 -11.1760 -10.8764

     occupation numbers 
     1.0000   0.0000   0.0000   0.0000

 ------ SPIN DOWN ----------


          k = 0.0000 0.0000 0.0000 ( 45812 PWs)   bands (ev):

   -15.8601 -11.1761 -11.1760 -10.8764

     occupation numbers 
     1.0000   0.0000   0.0000   0.0000

     highest occupied, lowest unoccupied level (ev):   -15.8601  -11.1761
       I     D       A      Val   Target      Str
       1 1.000  -0.990    1.990    2.000    1.135

!    total energy              =      -1.27863109 Ry
     Harris-Foulkes estimate   =      -1.27862661 Ry
     estimated scf accuracy    <          2.4E-09 Ry

     The total energy is the sum of the following terms:

     one-electron contribution =      -1.32966211 Ry
     hartree contribution      =       1.22277975 Ry
     xc contribution           =      -0.92435037 Ry
     ewald contribution        =      -0.24739836 Ry
     CDFT correction           =       2.25931162 Ry

     total magnetization       =     0.00 Bohr mag/cell
     absolute magnetization    =     0.00 Bohr mag/cell

     convergence has been achieved in   5 iterations

     Forces acting on atoms (Ry/au):

           1           1           1
           2           2           2
 atom            1 dens    148.184709529029     
  shifted atom            1 dens    148.184709529029     
  shifted atom            1 dens    148.184709529029     
  shifted atom            1 dens    148.184709529029     
 atom            2 dens    148.184709529030     
  shifted atom            2 dens    148.184709529030     
  shifted atom            2 dens    148.184709529030     
  shifted atom            2 dens    148.184709529030     
     atom    1 type  1   force =     0.00431589    0.00003324   -0.00000996
     atom    2 type  1   force =    -0.00431589   -0.00003324    0.00000996
     The non-local contrib.  to forces
     atom    1 type  1   force =     0.00045013   -0.00000011   -0.00000000
     atom    2 type  1   force =    -0.00000000   -0.00000000    0.00000000
     The ionic contribution  to forces
     atom    1 type  1   force =    -0.01200927    0.00000138    0.00000079
     atom    2 type  1   force =     0.01200927   -0.00000138   -0.00000079
     The local contribution  to forces
     atom    1 type  1   force =     0.01060361   -0.00000199   -0.00000104
     atom    2 type  1   force =    -0.02305209    0.00000270    0.00000154
     The core correction contribution to forces
     atom    1 type  1   force =     0.00000000    0.00000000    0.00000000
     atom    2 type  1   force =     0.00000000    0.00000000    0.00000000
     The Hubbard contrib.    to forces
     atom    1 type  1   force =     0.00000000    0.00000000    0.00000000
     atom    2 type  1   force =     0.00000000    0.00000000    0.00000000
     The SCF correction term to forces
     atom    1 type  1   force =     0.00346045    0.00000001   -0.00000013
     atom    2 type  1   force =     0.00424677   -0.00007322    0.00001415
     The CDFT correction term to forces
     atom    1 type  1   force =     0.00619718   -0.00000502   -0.00000467
     atom    2 type  1   force =     0.00686637   -0.00000032   -0.00000003

     Total force =     0.006104     Total SCF correction =     0.005479

     Total CDFT Force =     0.009249
     SCF correction compared to forces is large: reduce conv_thr to get better values

     number of scf cycles    =   7
     number of bfgs steps    =   6

     energy   old            =      -1.2785610883 Ry
     energy   new            =      -1.2786310920 Ry

     CASE: energy  _new < energy  _old


     WARNING: bfgs curvature condition failed, Theta= 0.959
     new trust radius        =       0.0070057024 bohr
     new conv_thr            =       0.0000000100 Ry


ATOMIC_POSITIONS (angstrom)
H        0.015520854   0.000157491   0.000089838
H        4.984479146  -0.000157491  -0.000089838



     Writing output data file left.save
     NEW-OLD atomic charge density approx. for the potential

     negative rho (up, down):  1.613E-03 1.612E-03

     total cpu time spent up to now is      176.0 secs

     per-process dynamical memory:   421.8 Mb

     Self-consistent Calculation

     iteration #  1     ecut=    60.00 Ry     beta=0.30
     Davidson diagonalization with overlap
     ethr =  1.00E-06,  avg # of iterations =  3.0

     negative rho (up, down):  1.129E-03 1.128E-03
 
     Magnetic moment per site:
     atom:    1    charge:    1.8207    magn:    0.0000    constr:    0.0000
     atom:    2    charge:    0.0001    magn:   -0.0000    constr:    0.0000

     total cpu time spent up to now is      179.0 secs

     total energy              =      -1.27870581 Ry
     Harris-Foulkes estimate   =      -1.27868348 Ry
     estimated scf accuracy    <       0.00000800 Ry

     total magnetization       =    -0.00 Bohr mag/cell
     absolute magnetization    =     0.00 Bohr mag/cell

     iteration #  2     ecut=    60.00 Ry     beta=0.30
     Davidson diagonalization with overlap
     ethr =  4.00E-07,  avg # of iterations =  1.0

     negative rho (up, down):  1.357E-04 1.356E-04
 
     Magnetic moment per site:
     atom:    1    charge:    1.8208    magn:   -0.0000    constr:    0.0000
     atom:    2    charge:    0.0001    magn:   -0.0000    constr:    0.0000

     total cpu time spent up to now is      181.5 secs

     total energy              =      -1.27872301 Ry
     Harris-Foulkes estimate   =      -1.27869383 Ry
     estimated scf accuracy    <       0.00000371 Ry

     total magnetization       =    -0.00 Bohr mag/cell
     absolute magnetization    =     0.00 Bohr mag/cell

     iteration #  3     ecut=    60.00 Ry     beta=0.30
     Davidson diagonalization with overlap
     ethr =  1.86E-07,  avg # of iterations =  1.0

     negative rho (up, down):  1.647E-05 1.645E-05
 
     Magnetic moment per site:
     atom:    1    charge:    1.8208    magn:    0.0000    constr:    0.0000
     atom:    2    charge:    0.0001    magn:   -0.0000    constr:    0.0000

     total cpu time spent up to now is      184.1 secs

     total energy              =      -1.27873304 Ry
     Harris-Foulkes estimate   =      -1.27872103 Ry
     estimated scf accuracy    <       0.00000007 Ry

     total magnetization       =    -0.00 Bohr mag/cell
     absolute magnetization    =     0.00 Bohr mag/cell

     iteration #  4     ecut=    60.00 Ry     beta=0.30
     Davidson diagonalization with overlap
     ethr =  3.38E-09,  avg # of iterations =  1.0
 
     Magnetic moment per site:
     atom:    1    charge:    1.8207    magn:   -0.0000    constr:    0.0000
     atom:    2    charge:    0.0001    magn:    0.0000    constr:    0.0000

     total cpu time spent up to now is      186.5 secs

     End of self-consistent calculation

 ------ SPIN UP ------------


          k = 0.0000 0.0000 0.0000 ( 45812 PWs)   bands (ev):

   -15.8601 -11.1754 -11.1754 -10.8774

     occupation numbers 
     1.0000   0.0000   0.0000   0.0000

 ------ SPIN DOWN ----------


          k = 0.0000 0.0000 0.0000 ( 45812 PWs)   bands (ev):

   -15.8601 -11.1754 -11.1754 -10.8774

     occupation numbers 
     1.0000   0.0000   0.0000   0.0000

     highest occupied, lowest unoccupied level (ev):   -15.8601  -11.1754
       I     D       A      Val   Target      Str
       1 1.000  -0.990    1.990    2.000    1.135

!    total energy              =      -1.27873112 Ry
     Harris-Foulkes estimate   =      -1.27872787 Ry
     estimated scf accuracy    <          8.2E-09 Ry

     The total energy is the sum of the following terms:

     one-electron contribution =      -1.33004798 Ry
     hartree contribution      =       1.22300711 Ry
     xc contribution           =      -0.92446084 Ry
     ewald contribution        =      -0.24722942 Ry
     CDFT correction           =       2.25926931 Ry

     total magnetization       =     0.00 Bohr mag/cell
     absolute magnetization    =     0.00 Bohr mag/cell

     convergence has been achieved in   4 iterations

     Forces acting on atoms (Ry/au):

           1           1           1
           2           2           2
 atom            1 dens    148.184709529035     
  shifted atom            1 dens    148.184709529035     
  shifted atom            1 dens    148.184709529035     
  shifted atom            1 dens    148.184709529035     
 atom            2 dens    148.184709529035     
  shifted atom            2 dens    148.184709529035     
  shifted atom            2 dens    148.184709529035     
  shifted atom            2 dens    148.184709529035     
     atom    1 type  1   force =     0.00443977    0.00000321    0.00000056
     atom    2 type  1   force =    -0.00443977   -0.00000321   -0.00000056
     The non-local contrib.  to forces
     atom    1 type  1   force =     0.00045165    0.00000001   -0.00000002
     atom    2 type  1   force =    -0.00000000    0.00000000    0.00000000
     The ionic contribution  to forces
     atom    1 type  1   force =    -0.01210606    0.00000142    0.00000081
     atom    2 type  1   force =     0.01210606   -0.00000142   -0.00000081
     The local contribution  to forces
     atom    1 type  1   force =     0.01065671   -0.00000198   -0.00000110
     atom    2 type  1   force =    -0.02323456    0.00000274    0.00000157
     The core correction contribution to forces
     atom    1 type  1   force =     0.00000000    0.00000000    0.00000000
     atom    2 type  1   force =     0.00000000    0.00000000    0.00000000
     The Hubbard contrib.    to forces
     atom    1 type  1   force =     0.00000000    0.00000000    0.00000000
     atom    2 type  1   force =     0.00000000    0.00000000    0.00000000
     The SCF correction term to forces
     atom    1 type  1   force =     0.00352244   -0.00000018   -0.00000010
     atom    2 type  1   force =     0.00409694   -0.00001067   -0.00000434
     The CDFT correction term to forces
     atom    1 type  1   force =     0.00625176   -0.00000250   -0.00000214
     atom    2 type  1   force =     0.00692851   -0.00000031   -0.00000009

     Total force =     0.006279     Total SCF correction =     0.005403

     Total CDFT Force =     0.009332
     SCF correction compared to forces is large: reduce conv_thr to get better values

     number of scf cycles    =   8
     number of bfgs steps    =   7

     energy   old            =      -1.2786310920 Ry
     energy   new            =      -1.2787311236 Ry

     CASE: energy  _new < energy  _old


     WARNING: bfgs curvature condition failed, Theta= 0.430
     new trust radius        =       0.0105085535 bohr
     new conv_thr            =       0.0000000100 Ry


ATOMIC_POSITIONS (angstrom)
H        0.021081605   0.000195358   0.000081051
H        4.978918395  -0.000195358  -0.000081051



     Writing output data file left.save
     NEW-OLD atomic charge density approx. for the potential

     negative rho (up, down):  2.422E-03 2.423E-03

     total cpu time spent up to now is      191.4 secs

     per-process dynamical memory:   421.8 Mb

     Self-consistent Calculation

     iteration #  1     ecut=    60.00 Ry     beta=0.30
     Davidson diagonalization with overlap
     ethr =  1.00E-06,  avg # of iterations =  3.0

     negative rho (up, down):  1.695E-03 1.696E-03
 
     Magnetic moment per site:
     atom:    1    charge:    1.8209    magn:   -0.0000    constr:    0.0000
     atom:    2    charge:    0.0001    magn:    0.0000    constr:    0.0000

     total cpu time spent up to now is      194.3 secs

     total energy              =      -1.27884921 Ry
     Harris-Foulkes estimate   =      -1.27881383 Ry
     estimated scf accuracy    <       0.00001804 Ry

     total magnetization       =     0.00 Bohr mag/cell
     absolute magnetization    =     0.00 Bohr mag/cell

     iteration #  2     ecut=    60.00 Ry     beta=0.30
     Davidson diagonalization with overlap
     ethr =  9.02E-07,  avg # of iterations =  1.0

     negative rho (up, down):  1.958E-04 1.959E-04
 
     Magnetic moment per site:
     atom:    1    charge:    1.8211    magn:   -0.0000    constr:    0.0000
     atom:    2    charge:    0.0001    magn:    0.0000    constr:    0.0000

     total cpu time spent up to now is      196.8 secs

     total energy              =      -1.27887464 Ry
     Harris-Foulkes estimate   =      -1.27882805 Ry
     estimated scf accuracy    <       0.00000838 Ry

     total magnetization       =     0.00 Bohr mag/cell
     absolute magnetization    =     0.00 Bohr mag/cell

     iteration #  3     ecut=    60.00 Ry     beta=0.30
     Davidson diagonalization with overlap
     ethr =  4.19E-07,  avg # of iterations =  1.0

     negative rho (up, down):  2.668E-05 2.669E-05
 
     Magnetic moment per site:
     atom:    1    charge:    1.8210    magn:   -0.0000    constr:    0.0000
     atom:    2    charge:    0.0001    magn:    0.0000    constr:    0.0000

     total cpu time spent up to now is      199.3 secs

     total energy              =      -1.27888949 Ry
     Harris-Foulkes estimate   =      -1.27887143 Ry
     estimated scf accuracy    <       0.00000014 Ry

     total magnetization       =    -0.00 Bohr mag/cell
     absolute magnetization    =     0.00 Bohr mag/cell

     iteration #  4     ecut=    60.00 Ry     beta=0.30
     Davidson diagonalization with overlap
     ethr =  7.14E-09,  avg # of iterations =  1.0

     negative rho (up, down):  1.128E-06 1.129E-06
 
     Magnetic moment per site:
     atom:    1    charge:    1.8210    magn:   -0.0000    constr:    0.0000
     atom:    2    charge:    0.0001    magn:    0.0000    constr:    0.0000

     total cpu time spent up to now is      201.9 secs

     total energy              =      -1.27888654 Ry
     Harris-Foulkes estimate   =      -1.27888178 Ry
     estimated scf accuracy    <       0.00000002 Ry

     total magnetization       =    -0.00 Bohr mag/cell
     absolute magnetization    =     0.00 Bohr mag/cell

     iteration #  5     ecut=    60.00 Ry     beta=0.30
     Davidson diagonalization with overlap
     ethr =  8.94E-10,  avg # of iterations =  1.0
 
     Magnetic moment per site:
     atom:    1    charge:    1.8210    magn:   -0.0000    constr:    0.0000
     atom:    2    charge:    0.0001    magn:    0.0000    constr:    0.0000

     total cpu time spent up to now is      204.2 secs

     End of self-consistent calculation

 ------ SPIN UP ------------


          k = 0.0000 0.0000 0.0000 ( 45812 PWs)   bands (ev):

   -15.8609 -11.1749 -11.1748 -10.8801

     occupation numbers 
     1.0000   0.0000   0.0000   0.0000

 ------ SPIN DOWN ----------


          k = 0.0000 0.0000 0.0000 ( 45812 PWs)   bands (ev):

   -15.8609 -11.1749 -11.1748 -10.8801

     occupation numbers 
     1.0000   0.0000   0.0000   0.0000

     highest occupied, lowest unoccupied level (ev):   -15.8609  -11.1749
       I     D       A      Val   Target      Str
       1 1.000  -0.990    1.990    2.000    1.135

!    total energy              =      -1.27888618 Ry
     Harris-Foulkes estimate   =      -1.27888550 Ry
     estimated scf accuracy    <          8.4E-10 Ry

     The total energy is the sum of the following terms:

     one-electron contribution =      -1.33066163 Ry
     hartree contribution      =       1.22340323 Ry
     xc contribution           =      -0.92465433 Ry
     ewald contribution        =      -0.24697346 Ry
     CDFT correction           =       2.25920359 Ry

     total magnetization       =     0.00 Bohr mag/cell
     absolute magnetization    =     0.00 Bohr mag/cell

     convergence has been achieved in   5 iterations

     Forces acting on atoms (Ry/au):

           1           1           1
           2           2           2
 atom            1 dens    148.184709529036     
  shifted atom            1 dens    148.184709529036     
  shifted atom            1 dens    148.184709529036     
  shifted atom            1 dens    148.184709529036     
 atom            2 dens    148.184709529037     
[...]

     convergence has been achieved in   5 iterations

     Forces acting on atoms (Ry/au):

           1           1           1
           2           2           2
 atom            1 dens    148.184709529030     
  shifted atom            1 dens    148.184709529030     
  shifted atom            1 dens    148.184709529030     
  shifted atom            1 dens    148.184709529030     
 atom            2 dens    148.184709529033     
  shifted atom            2 dens    148.184709529033     
  shifted atom            2 dens    148.184709529033     
  shifted atom            2 dens    148.184709529033     
     atom    1 type  1   force =     0.00454162   -0.00000297   -0.00000063
     atom    2 type  1   force =    -0.00454162    0.00000297    0.00000063
     The non-local contrib.  to forces
     atom    1 type  1   force =     0.00047548    0.00000011    0.00000004
     atom    2 type  1   force =    -0.00000000    0.00000000    0.00000000
     The ionic contribution  to forces
     atom    1 type  1   force =    -0.01273812    0.00000239    0.00000053
     atom    2 type  1   force =     0.01273812   -0.00000239   -0.00000053
     The local contribution  to forces
     atom    1 type  1   force =     0.01111947   -0.00000390   -0.00000091
     atom    2 type  1   force =    -0.02443217    0.00000457    0.00000101
     The core correction contribution to forces
     atom    1 type  1   force =     0.00000000    0.00000000    0.00000000
     atom    2 type  1   force =     0.00000000    0.00000000    0.00000000
     The Hubbard contrib.    to forces
     atom    1 type  1   force =     0.00000000    0.00000000    0.00000000
     atom    2 type  1   force =     0.00000000    0.00000000    0.00000000
     The SCF correction term to forces
     atom    1 type  1   force =     0.00376848   -0.00000034   -0.00000008
     atom    2 type  1   force =     0.00450682   -0.00000051   -0.00000123
     The CDFT correction term to forces
     atom    1 type  1   force =     0.00661986   -0.00000310   -0.00000159
     atom    2 type  1   force =     0.00734916   -0.00000057   -0.00000001

     Total force =     0.006423     Total SCF correction =     0.005875

     Total CDFT Force =     0.009891
     SCF correction compared to forces is large: reduce conv_thr to get better values

     number of scf cycles    =  14
     number of bfgs steps    =  13

     energy   old            =      -1.2793299184 Ry
     energy   new            =      -1.2794090045 Ry

     CASE: energy  _new < energy  _old


     WARNING: bfgs curvature condition failed, Theta= 0.567
     uphill step: resetting bfgs history

     new trust radius        =       0.0045416197 bohr
     new conv_thr            =       0.0000000100 Ry


ATOMIC_POSITIONS (angstrom)
H        0.041921654   0.000258033   0.000057356
H        4.958078346  -0.000258033  -0.000057356



     Writing output data file left.save
     NEW-OLD atomic charge density approx. for the potential

     negative rho (up, down):  1.051E-03 1.050E-03

     total cpu time spent up to now is      300.0 secs

     per-process dynamical memory:   421.8 Mb

     Self-consistent Calculation

     iteration #  1     ecut=    60.00 Ry     beta=0.30
     Davidson diagonalization with overlap
     ethr =  1.00E-06,  avg # of iterations =  2.0

     negative rho (up, down):  7.353E-04 7.351E-04
 
     Magnetic moment per site:
     atom:    1    charge:    1.8219    magn:   -0.0000    constr:    0.0000
     atom:    2    charge:    0.0001    magn:   -0.0000    constr:    0.0000

     total cpu time spent up to now is      302.9 secs

     total energy              =      -1.27944625 Ry
     Harris-Foulkes estimate   =      -1.27944452 Ry
     estimated scf accuracy    <       0.00000328 Ry

     total magnetization       =     0.00 Bohr mag/cell
     absolute magnetization    =     0.00 Bohr mag/cell

     iteration #  2     ecut=    60.00 Ry     beta=0.30
     Davidson diagonalization with overlap
     ethr =  1.64E-07,  avg # of iterations =  1.0

     negative rho (up, down):  1.299E-04 1.299E-04
 
     Magnetic moment per site:
     atom:    1    charge:    1.8220    magn:   -0.0000    constr:    0.0000
     atom:    2    charge:    0.0001    magn:   -0.0000    constr:    0.0000

     total cpu time spent up to now is      305.5 secs

     total energy              =      -1.27946942 Ry
     Harris-Foulkes estimate   =      -1.27944786 Ry
     estimated scf accuracy    <       0.00000153 Ry

     total magnetization       =     0.00 Bohr mag/cell
     absolute magnetization    =     0.00 Bohr mag/cell

     iteration #  3     ecut=    60.00 Ry     beta=0.30
     Davidson diagonalization with overlap
     ethr =  7.66E-08,  avg # of iterations =  1.0

     negative rho (up, down):  7.000E-06 6.998E-06
 
     Magnetic moment per site:
     atom:    1    charge:    1.8220    magn:   -0.0000    constr:    0.0000
     atom:    2    charge:    0.0001    magn:   -0.0000    constr:    0.0000

     total cpu time spent up to now is      308.3 secs

     total energy              =      -1.27947259 Ry
     Harris-Foulkes estimate   =      -1.27946696 Ry
     estimated scf accuracy    <       0.00000005 Ry

     total magnetization       =    -0.00 Bohr mag/cell
     absolute magnetization    =     0.00 Bohr mag/cell

     iteration #  4     ecut=    60.00 Ry     beta=0.30
     Davidson diagonalization with overlap
     ethr =  2.58E-09,  avg # of iterations =  2.0

     negative rho (up, down):  1.029E-06 1.029E-06
 
     Magnetic moment per site:
     atom:    1    charge:    1.8219    magn:   -0.0000    constr:    0.0000
     atom:    2    charge:    0.0001    magn:   -0.0000    constr:    0.0000

     total cpu time spent up to now is      311.0 secs

     total energy              =      -1.27948042 Ry
     Harris-Foulkes estimate   =      -1.27947122 Ry
     estimated scf accuracy    <       0.00000002 Ry

     total magnetization       =    -0.00 Bohr mag/cell
     absolute magnetization    =     0.00 Bohr mag/cell

     iteration #  5     ecut=    60.00 Ry     beta=0.30
     Davidson diagonalization with overlap
     ethr =  8.75E-10,  avg # of iterations =  1.0
 
     Magnetic moment per site:
     atom:    1    charge:    1.8219    magn:   -0.0000    constr:    0.0000
     atom:    2    charge:    0.0001    magn:    0.0000    constr:    0.0000

     total cpu time spent up to now is      313.4 secs

     End of self-consistent calculation

 ------ SPIN UP ------------


          k = 0.0000 0.0000 0.0000 ( 45812 PWs)   bands (ev):

   -15.8619 -11.1705 -11.1704 -10.8889

     occupation numbers 
     1.0000   0.0000   0.0000   0.0000

 ------ SPIN DOWN ----------


          k = 0.0000 0.0000 0.0000 ( 45812 PWs)   bands (ev):

   -15.8619 -11.1705 -11.1704 -10.8889

     occupation numbers 
     1.0000   0.0000   0.0000   0.0000

     highest occupied, lowest unoccupied level (ev):   -15.8619  -11.1705
       I     D       A      Val   Target      Str
       1 1.000  -0.990    1.990    2.000    1.135

!    total energy              =      -1.27947899 Ry
     Harris-Foulkes estimate   =      -1.27947484 Ry
     estimated scf accuracy    <          2.1E-09 Ry

     The total energy is the sum of the following terms:

     one-electron contribution =      -1.33290697 Ry
     hartree contribution      =       1.22469850 Ry
     xc contribution           =      -0.92528366 Ry
     ewald contribution        =      -0.24598685 Ry
     CDFT correction           =       2.25894310 Ry

     total magnetization       =    -0.00 Bohr mag/cell
     absolute magnetization    =     0.00 Bohr mag/cell

     convergence has been achieved in   5 iterations

     Forces acting on atoms (Ry/au):

           1           1           1
           2           2           2
 atom            1 dens    148.184709529032     
  shifted atom            1 dens    148.184709529032     
  shifted atom            1 dens    148.184709529032     
  shifted atom            1 dens    148.184709529032     
 atom            2 dens    148.184709529032     
  shifted atom            2 dens    148.184709529032     
  shifted atom            2 dens    148.184709529032     
  shifted atom            2 dens    148.184709529032     
     atom    1 type  1   force =     0.00458399   -0.00000671   -0.00000368
     atom    2 type  1   force =    -0.00458399    0.00000671    0.00000368
     The non-local contrib.  to forces
     atom    1 type  1   force =     0.00047798    0.00000011    0.00000001
     atom    2 type  1   force =    -0.00000000    0.00000000   -0.00000000
     The ionic contribution  to forces
     atom    1 type  1   force =    -0.01280197    0.00000238    0.00000053
     atom    2 type  1   force =     0.01280197   -0.00000238   -0.00000053
     The local contribution  to forces
     atom    1 type  1   force =     0.01115989   -0.00000381   -0.00000078
     atom    2 type  1   force =    -0.02455256    0.00000455    0.00000101
     The core correction contribution to forces
     atom    1 type  1   force =     0.00000000    0.00000000    0.00000000
     atom    2 type  1   force =     0.00000000    0.00000000    0.00000000
     The Hubbard contrib.    to forces
     atom    1 type  1   force =     0.00000000    0.00000000    0.00000000
     atom    2 type  1   force =     0.00000000    0.00000000    0.00000000
     The SCF correction term to forces
     atom    1 type  1   force =     0.00379783   -0.00000036   -0.00000008
     atom    2 type  1   force =     0.00448157    0.00000258    0.00000058
     The CDFT correction term to forces
     atom    1 type  1   force =     0.00665732   -0.00000758   -0.00000575
     atom    2 type  1   force =     0.00739208   -0.00000058    0.00000022

     Total force =     0.006483     Total SCF correction =     0.005874

     Total CDFT Force =     0.009948
     SCF correction compared to forces is large: reduce conv_thr to get better values

     number of scf cycles    =  15
     number of bfgs steps    =  14

     energy   old            =      -1.2794090045 Ry
     energy   new            =      -1.2794789855 Ry

     CASE: energy  _new < energy  _old


     WARNING: bfgs curvature condition failed, Theta= 0.793
     new trust radius        =       0.0049957816 bohr
     new conv_thr            =       0.0000000100 Ry


ATOMIC_POSITIONS (angstrom)
H        0.044565308   0.000256763   0.000057365
H        4.955434692  -0.000256763  -0.000057365



     Writing output data file left.save
     NEW-OLD atomic charge density approx. for the potential

     negative rho (up, down):  1.156E-03 1.156E-03

     total cpu time spent up to now is      318.4 secs

     per-process dynamical memory:   421.8 Mb

     Self-consistent Calculation

     iteration #  1     ecut=    60.00 Ry     beta=0.30
     Davidson diagonalization with overlap
     ethr =  1.00E-06,  avg # of iterations =  2.0

     negative rho (up, down):  8.089E-04 8.089E-04
 
     Magnetic moment per site:
     atom:    1    charge:    1.8220    magn:   -0.0000    constr:    0.0000
     atom:    2    charge:    0.0001    magn:   -0.0000    constr:    0.0000

     total cpu time spent up to now is      321.1 secs

     total energy              =      -1.27951944 Ry
     Harris-Foulkes estimate   =      -1.27951825 Ry
     estimated scf accuracy    <       0.00000398 Ry

     total magnetization       =     0.00 Bohr mag/cell
     absolute magnetization    =     0.00 Bohr mag/cell

     iteration #  2     ecut=    60.00 Ry     beta=0.30
     Davidson diagonalization with overlap
     ethr =  1.99E-07,  avg # of iterations =  1.0

     negative rho (up, down):  1.435E-04 1.435E-04
 
     Magnetic moment per site:
     atom:    1    charge:    1.8221    magn:    0.0000    constr:    0.0000
     atom:    2    charge:    0.0001    magn:   -0.0000    constr:    0.0000

     total cpu time spent up to now is      323.6 secs

     total energy              =      -1.27954497 Ry
     Harris-Foulkes estimate   =      -1.27952166 Ry
     estimated scf accuracy    <       0.00000185 Ry

     total magnetization       =    -0.00 Bohr mag/cell
     absolute magnetization    =     0.00 Bohr mag/cell

     iteration #  3     ecut=    60.00 Ry     beta=0.30
     Davidson diagonalization with overlap
     ethr =  9.27E-08,  avg # of iterations =  1.0

     negative rho (up, down):  7.711E-06 7.711E-06
 
     Magnetic moment per site:
     atom:    1    charge:    1.8221    magn:    0.0000    constr:    0.0000
     atom:    2    charge:    0.0001    magn:   -0.0000    constr:    0.0000

     total cpu time spent up to now is      326.1 secs

     total energy              =      -1.27954838 Ry
     Harris-Foulkes estimate   =      -1.27954233 Ry
     estimated scf accuracy    <       0.00000006 Ry

     total magnetization       =    -0.00 Bohr mag/cell
     absolute magnetization    =     0.00 Bohr mag/cell

     iteration #  4     ecut=    60.00 Ry     beta=0.30
     Davidson diagonalization with overlap
     ethr =  3.15E-09,  avg # of iterations =  2.0

     negative rho (up, down):  1.057E-06 1.057E-06
 
     Magnetic moment per site:
     atom:    1    charge:    1.8221    magn:    0.0000    constr:    0.0000
     atom:    2    charge:    0.0001    magn:   -0.0000    constr:    0.0000

     total cpu time spent up to now is      328.8 secs

     total energy              =      -1.27955695 Ry
     Harris-Foulkes estimate   =      -1.27954695 Ry
     estimated scf accuracy    <       0.00000002 Ry

     total magnetization       =    -0.00 Bohr mag/cell
     absolute magnetization    =     0.00 Bohr mag/cell

     iteration #  5     ecut=    60.00 Ry     beta=0.30
     Davidson diagonalization with overlap
     ethr =  1.02E-09,  avg # of iterations =  1.0
 
     Magnetic moment per site:
     atom:    1    charge:    1.8220    magn:    0.0000    constr:    0.0000
     atom:    2    charge:    0.0001    magn:   -0.0000    constr:    0.0000

     total cpu time spent up to now is      331.1 secs

     End of self-consistent calculation

 ------ SPIN UP ------------


          k = 0.0000 0.0000 0.0000 ( 45812 PWs)   bands (ev):

   -15.8620 -11.1699 -11.1698 -10.8904

     occupation numbers 
     1.0000   0.0000   0.0000   0.0000

 ------ SPIN DOWN ----------


          k = 0.0000 0.0000 0.0000 ( 45812 PWs)   bands (ev):

   -15.8620 -11.1699 -11.1698 -10.8904

     occupation numbers 
     1.0000   0.0000   0.0000   0.0000

     highest occupied, lowest unoccupied level (ev):   -15.8620  -11.1699
       I     D       A      Val   Target      Str
       1 0.999  -0.990    1.989    2.000    1.135

!    total energy              =      -1.27955554 Ry
     Harris-Foulkes estimate   =      -1.27955089 Ry
     estimated scf accuracy    <          2.5E-09 Ry

     The total energy is the sum of the following terms:

     one-electron contribution =      -1.33320088 Ry
     hartree contribution      =       1.22487190 Ry
     xc contribution           =      -0.92536797 Ry
     ewald contribution        =      -0.24585859 Ry
     CDFT correction           =       2.25890920 Ry

     total magnetization       =    -0.00 Bohr mag/cell
     absolute magnetization    =     0.00 Bohr mag/cell

     convergence has been achieved in   5 iterations

     Forces acting on atoms (Ry/au):

           1           1           1
           2           2           2
 atom            1 dens    148.184709529030     
  shifted atom            1 dens    148.184709529030     
  shifted atom            1 dens    148.184709529030     
  shifted atom            1 dens    148.184709529030     
 atom            2 dens    148.184709529030     
  shifted atom            2 dens    148.184709529030     
  shifted atom            2 dens    148.184709529030     
  shifted atom            2 dens    148.184709529030     
     atom    1 type  1   force =     0.00460217   -0.00000498   -0.00000308
     atom    2 type  1   force =    -0.00460217    0.00000498    0.00000308
     The non-local contrib.  to forces
     atom    1 type  1   force =     0.00048063   -0.00000001   -0.00000002
     atom    2 type  1   force =    -0.00000000    0.00000000    0.00000000
     The ionic contribution  to forces
     atom    1 type  1   force =    -0.01287231    0.00000237    0.00000053
     atom    2 type  1   force =     0.01287231   -0.00000237   -0.00000053
     The local contribution  to forces
     atom    1 type  1   force =     0.01120798   -0.00000325   -0.00000062
     atom    2 type  1   force =    -0.02468522    0.00000457    0.00000103
     The core correction contribution to forces
     atom    1 type  1   force =     0.00000000    0.00000000    0.00000000
     atom    2 type  1   force =     0.00000000    0.00000000    0.00000000
     The Hubbard contrib.    to forces
     atom    1 type  1   force =     0.00000000    0.00000000    0.00000000
     atom    2 type  1   force =     0.00000000    0.00000000    0.00000000
     The SCF correction term to forces
     atom    1 type  1   force =     0.00382803   -0.00000038   -0.00000009
     atom    2 type  1   force =     0.00451359    0.00000274    0.00000147
     The CDFT correction term to forces
     atom    1 type  1   force =     0.00669911   -0.00000435   -0.00000389
     atom    2 type  1   force =     0.00743842   -0.00000060    0.00000010

     Total force =     0.006508     Total SCF correction =     0.005918

     Total CDFT Force =     0.010010
     SCF correction compared to forces is large: reduce conv_thr to get better values

     number of scf cycles    =  16
     number of bfgs steps    =  15

     energy   old            =      -1.2794789855 Ry
     energy   new            =      -1.2795555379 Ry

     CASE: energy  _new < energy  _old


     WARNING: bfgs curvature condition failed, Theta= 0.328
     new trust radius        =       0.0074936724 bohr
     new conv_thr            =       0.0000000100 Ry


ATOMIC_POSITIONS (angstrom)
H        0.048530788   0.000254336   0.000057198
H        4.951469212  -0.000254336  -0.000057198



     Writing output data file left.save
     NEW-OLD atomic charge density approx. for the potential

     negative rho (up, down):  1.735E-03 1.735E-03

     total cpu time spent up to now is      336.1 secs

     per-process dynamical memory:   421.8 Mb

     Self-consistent Calculation

     iteration #  1     ecut=    60.00 Ry     beta=0.30
     Davidson diagonalization with overlap
     ethr =  1.00E-06,  avg # of iterations =  3.0

     negative rho (up, down):  1.214E-03 1.214E-03
 
     Magnetic moment per site:
     atom:    1    charge:    1.8221    magn:    0.0000    constr:    0.0000
     atom:    2    charge:    0.0001    magn:   -0.0000    constr:    0.0000

     total cpu time spent up to now is      339.2 secs

     total energy              =      -1.27964127 Ry
     Harris-Foulkes estimate   =      -1.27961593 Ry
     estimated scf accuracy    <       0.00000915 Ry

     total magnetization       =     0.00 Bohr mag/cell
     absolute magnetization    =     0.00 Bohr mag/cell

     iteration #  2     ecut=    60.00 Ry     beta=0.30
     Davidson diagonalization with overlap
     ethr =  4.57E-07,  avg # of iterations =  1.0

     negative rho (up, down):  1.465E-04 1.465E-04
 
     Magnetic moment per site:
     atom:    1    charge:    1.8223    magn:    0.0000    constr:    0.0000
     atom:    2    charge:    0.0001    magn:   -0.0000    constr:    0.0000

     total cpu time spent up to now is      341.9 secs

     total energy              =      -1.27965934 Ry
     Harris-Foulkes estimate   =      -1.27962726 Ry
     estimated scf accuracy    <       0.00000424 Ry

     total magnetization       =     0.00 Bohr mag/cell
     absolute magnetization    =     0.00 Bohr mag/cell

     iteration #  3     ecut=    60.00 Ry     beta=0.30
     Davidson diagonalization with overlap
     ethr =  2.12E-07,  avg # of iterations =  1.0
