
     Program PWSCF v.5.1.1 starts on 11Aug2015 at 13:24:27 

     This program is part of the open-source Quantum ESPRESSO suite
     for quantum simulation of materials; please cite
         "P. Giannozzi et al., J. Phys.:Condens. Matter 21 395502 (2009);
          URL http://www.quantum-espresso.org", 
     in publications or presentations arising from this work. More details at
     http://www.quantum-espresso.org/quote

     Parallel version (MPI & OpenMP), running on     198 processor cores
     Number of MPI processes:               198
     Threads/MPI process:                     1
     R & G space division:  proc/nbgrp/npool/nimage =     198
     Waiting for input...
     Reading input from standard input

     Current dimensions of program PWSCF are:
     Max number of different atomic species (ntypx) = 10
     Max number of k-points (npk) =  40000
     Max angular momentum in pseudopotentials (lmaxx) =  3
               file Zn.pbe-mt_fhi.UPF: wavefunction(s)  4p 4f renormalized

     gamma-point specific algorithms are used
     Message from routine setup:
     the system is metallic, specify occupations

     Subspace diagonalization in iterative solution of the eigenvalue problem:
     scalapack distributed-memory algorithm (size of sub-group:  9*  9 procs)

 
     Parallelization info
     --------------------
     sticks:   dense  smooth     PW     G-vecs:    dense   smooth      PW
     Min         516     516    128               124316   124316   15532
     Max         518     518    130               124342   124342   15554
     Sum      102325  102325  25581             24616397 24616397 3077481
     Tot       51163   51163  12791
 
     Generating pointlists ...
     new r_m :   0.0688 (alat units)  3.8976 (a.u.) for type    1


     bravais-lattice index     =            1
     lattice parameter (alat)  =      56.6918  a.u.
     unit-cell volume          =  182205.0337 (a.u.)^3
     number of atoms/cell      =            2
     number of atomic types    =            1
     number of electrons       =        23.00 (up:  12.00, down:  11.00)
     number of Kohn-Sham states=           12
     kinetic-energy cutoff     =     100.0000  Ry
     charge density cutoff     =     400.0000  Ry
     convergence threshold     =      1.0E-09
     mixing beta               =       0.7000
     number of iterations used =            8  plain     mixing
     Exchange-correlation      = PBE ( 1  4  3  4 0 0)
     Assuming isolated system, Martyna-Tuckerman method


     celldm(1)=  56.691784  celldm(2)=   0.000000  celldm(3)=   0.000000
     celldm(4)=   0.000000  celldm(5)=   0.000000  celldm(6)=   0.000000

     crystal axes: (cart. coord. in units of alat)
               a(1) = (   1.000000   0.000000   0.000000 )  
               a(2) = (   0.000000   1.000000   0.000000 )  
               a(3) = (   0.000000   0.000000   1.000000 )  

     reciprocal axes: (cart. coord. in units 2 pi/alat)
               b(1) = (  1.000000  0.000000  0.000000 )  
               b(2) = (  0.000000  1.000000  0.000000 )  
               b(3) = (  0.000000  0.000000  1.000000 )  


     PseudoPot. # 1 for Zn read from file:
     ../Zn.pbe-mt_fhi.UPF
     MD5 check sum: 5596c9f2b89b9f7367257e7ea958b26e
     Pseudo is Norm-conserving, Zval = 12.0
     Generated using FHI98PP, converted with fhi2upf.x v.5.0.2
     Using radial grid of  527 points,  3 beta functions with: 
                l(1) =   1
                l(2) =   2
                l(3) =   3

     atomic species   valence    mass     pseudopotential
        Zn            12.00    65.39000     Zn( 1.00)

     Starting magnetic structure 
     atomic species   magnetization
        Zn           0.000

     No symmetry found


                                    s                        frac. trans.

      isym =  1     identity                                     

 cryst.   s( 1) = (     1          0          0      )
                  (     0          1          0      )
                  (     0          0          1      )

 cart.    s( 1) = (  1.0000000  0.0000000  0.0000000 )
                  (  0.0000000  1.0000000  0.0000000 )
                  (  0.0000000  0.0000000  1.0000000 )


     point group C_1 (1)    
     there are  1 classes
     the character table:

       E    
A      1.00

     the symmetry operations in each class:
     E        1

   Cartesian axes

     site n.     atom                  positions (alat units)
         1           Zn  tau(   1) = (   0.0000000   0.0000000   0.0000000  )
         2           Zn  tau(   2) = (   0.1666667   0.0000000   0.0000000  )

   Crystallographic axes

     site n.     atom                  positions (cryst. coord.)
         1           Zn  tau(   1) = (  0.0000000  0.0000000  0.0000000  )
         2           Zn  tau(   2) = (  0.1666667  0.0000000  0.0000000  )

     number of k points=     2
                       cart. coord. in units 2pi/alat
        k(    1) = (   0.0000000   0.0000000   0.0000000), wk =   1.0000000
        k(    2) = (   0.0000000   0.0000000   0.0000000), wk =   1.0000000

                       cryst. coord.
        k(    1) = (   0.0000000   0.0000000   0.0000000), wk =   1.0000000
        k(    2) = (   0.0000000   0.0000000   0.0000000), wk =   1.0000000

     Dense  grid: 12308199 G-vectors     FFT dimensions: ( 375, 375, 375)

     Largest allocated arrays     est. size (Mb)     dimensions
        Kohn-Sham Wavefunctions         1.42 Mb     (    7771,   12)
        NL pseudopotentials             3.56 Mb     (    7771,   30)
        Each V/rho on FFT grid          8.58 Mb     (  281250,   2)
        Each G-vector array             0.47 Mb     (   62165)
        G-vector shells                 0.13 Mb     (   16426)
     Largest temporary arrays     est. size (Mb)     dimensions
        Auxiliary wavefunctions         2.85 Mb     (    7771,   48)
        Each subspace H/S matrix        0.00 Mb     (       5,    5)
        Each <psi_i|beta_j> matrix      0.00 Mb     (      30,   12)
        Arrays for rho mixing          34.33 Mb     (  281250,    8)
 
     Using Hirshfeld
        Amplitude [Ry a.u.] :  3.3000E-01
        Acceptor Fragment start :           1
        Acceptor Fragment end   :           1
 

     Initial potential from superposition of free atoms
     Check: negative starting charge=(component1):   -0.004915
     Check: negative starting charge=(component2):   -0.004915

     starting charge   23.99975, renormalised to   23.00000

     negative rho (up, down):  4.711E-03 4.711E-03
     Starting wfc are   32 randomized atomic wfcs

     total cpu time spent up to now is       28.3 secs

     per-process dynamical memory:    83.6 Mb

     Self-consistent Calculation

     iteration #  1     ecut=   100.00 Ry     beta=0.70
     Davidson diagonalization with overlap
     ethr =  1.00E-02,  avg # of iterations =  2.0

     negative rho (up, down):  1.323E-03 1.358E-03
 
     Magnetic moment per site:
     atom:    1    charge:   11.7468    magn:    0.0025    constr:    0.0000
     atom:    2    charge:   11.0628    magn:    0.6647    constr:    0.0000

     total cpu time spent up to now is       34.2 secs

     The total energy is the sum of the following terms:

     one-electron contribution =    -459.51668924 Ry
     hartree contribution      =     236.61267265 Ry
     xc contribution           =     -32.75407991 Ry
     ewald contribution        =      30.48060721 Ry

     total energy              =    -220.74795220 Ry
     Harris-Foulkes estimate   =    -221.29789669 Ry
     estimated scf accuracy    <       0.70803120 Ry

     total magnetization       =     1.00 Bohr mag/cell
     absolute magnetization    =     1.00 Bohr mag/cell

     iteration #  2     ecut=   100.00 Ry     beta=0.70
     Davidson diagonalization with overlap
     ethr =  3.08E-03,  avg # of iterations =  3.0

     negative rho (up, down):  5.676E-04 5.915E-04
 
     Magnetic moment per site:
     atom:    1    charge:   11.7924    magn:    0.0033    constr:    0.0000
     atom:    2    charge:   10.9977    magn:    0.8231    constr:    0.0000

     total cpu time spent up to now is       40.3 secs

     The total energy is the sum of the following terms:

     one-electron contribution =    -451.32705614 Ry
     hartree contribution      =     234.02726696 Ry
     xc contribution           =     -32.36191939 Ry
     ewald contribution        =      30.48060721 Ry

     total energy              =    -220.91310995 Ry
     Harris-Foulkes estimate   =    -220.95549344 Ry
     estimated scf accuracy    <       0.06727176 Ry

     total magnetization       =     1.00 Bohr mag/cell
     absolute magnetization    =     1.01 Bohr mag/cell

     iteration #  3     ecut=   100.00 Ry     beta=0.70
     Davidson diagonalization with overlap
     ethr =  2.92E-04,  avg # of iterations =  4.0

     negative rho (up, down):  9.905E-05 1.043E-04
 
     Magnetic moment per site:
     atom:    1    charge:   11.8343    magn:    0.0042    constr:    0.0000
     atom:    2    charge:   10.9565    magn:    0.9263    constr:    0.0000

     total cpu time spent up to now is       46.3 secs

     The total energy is the sum of the following terms:

     one-electron contribution =    -453.59477472 Ry
     hartree contribution      =     234.36213892 Ry
     xc contribution           =     -32.41608026 Ry
     ewald contribution        =      30.48060721 Ry

     total energy              =    -220.93052074 Ry
     Harris-Foulkes estimate   =    -220.93160101 Ry
     estimated scf accuracy    <       0.00268470 Ry

     total magnetization       =     1.00 Bohr mag/cell
     absolute magnetization    =     1.01 Bohr mag/cell

     iteration #  4     ecut=   100.00 Ry     beta=0.70
     Davidson diagonalization with overlap
     ethr =  1.17E-05,  avg # of iterations =  5.0

     negative rho (up, down):  1.635E-05 1.757E-05
 
     Magnetic moment per site:
     atom:    1    charge:   11.8392    magn:    0.0046    constr:    0.0000
     atom:    2    charge:   10.9500    magn:    0.9462    constr:    0.0000

     total cpu time spent up to now is       52.6 secs

     The total energy is the sum of the following terms:

     one-electron contribution =    -453.32087949 Ry
     hartree contribution      =     234.36522140 Ry
     xc contribution           =     -32.42010842 Ry
     ewald contribution        =      30.48060721 Ry

     total energy              =    -220.93123818 Ry
     Harris-Foulkes estimate   =    -220.93125632 Ry
     estimated scf accuracy    <       0.00020138 Ry

     total magnetization       =     1.00 Bohr mag/cell
     absolute magnetization    =     1.02 Bohr mag/cell

     iteration #  5     ecut=   100.00 Ry     beta=0.70
     Davidson diagonalization with overlap
     ethr =  8.76E-07,  avg # of iterations =  3.5

     negative rho (up, down):  2.498E-10 3.888E-08
 
     Magnetic moment per site:
     atom:    1    charge:   11.8395    magn:    0.0051    constr:    0.0000
     atom:    2    charge:   10.9482    magn:    0.9505    constr:    0.0000

     total cpu time spent up to now is       58.5 secs

     The total energy is the sum of the following terms:

     one-electron contribution =    -453.32483981 Ry
     hartree contribution      =     234.33949592 Ry
     xc contribution           =     -32.41808360 Ry
     ewald contribution        =      30.48060721 Ry

     total energy              =    -220.93127719 Ry
     Harris-Foulkes estimate   =    -220.93127183 Ry
     estimated scf accuracy    <       0.00000978 Ry

     total magnetization       =     1.00 Bohr mag/cell
     absolute magnetization    =     1.02 Bohr mag/cell

     iteration #  6     ecut=   100.00 Ry     beta=0.70
     Davidson diagonalization with overlap
     ethr =  4.25E-08,  avg # of iterations =  5.5

     negative rho (up, down):  0.000E+00 2.409E-08
 
     Magnetic moment per site:
     atom:    1    charge:   11.8396    magn:    0.0052    constr:    0.0000
     atom:    2    charge:   10.9483    magn:    0.9504    constr:    0.0000

     total cpu time spent up to now is       64.9 secs

     The total energy is the sum of the following terms:

     one-electron contribution =    -453.34373005 Ry
     hartree contribution      =     234.34448546 Ry
     xc contribution           =     -32.41875413 Ry
     ewald contribution        =      30.48060721 Ry

     total energy              =    -220.93127956 Ry
     Harris-Foulkes estimate   =    -220.93127988 Ry
     estimated scf accuracy    <       0.00000085 Ry

     total magnetization       =     1.00 Bohr mag/cell
     absolute magnetization    =     1.02 Bohr mag/cell

     iteration #  7     ecut=   100.00 Ry     beta=0.70
     Davidson diagonalization with overlap
     ethr =  3.71E-09,  avg # of iterations =  3.5
 
     Magnetic moment per site:
     atom:    1    charge:   11.8397    magn:    0.0052    constr:    0.0000
     atom:    2    charge:   10.9483    magn:    0.9503    constr:    0.0000

     total cpu time spent up to now is       71.0 secs

     The total energy is the sum of the following terms:

     one-electron contribution =    -453.33998120 Ry
     hartree contribution      =     234.34685393 Ry
     xc contribution           =     -32.41899437 Ry
     ewald contribution        =      30.48060721 Ry

     total energy              =    -220.93127971 Ry
     Harris-Foulkes estimate   =    -220.93127974 Ry
     estimated scf accuracy    <       0.00000007 Ry

     total magnetization       =     1.00 Bohr mag/cell
     absolute magnetization    =     1.02 Bohr mag/cell

     iteration #  8     ecut=   100.00 Ry     beta=0.70
     Davidson diagonalization with overlap
     ethr =  2.92E-10,  avg # of iterations =  4.0
 
     Magnetic moment per site:
     atom:    1    charge:   11.8397    magn:    0.0052    constr:    0.0000
     atom:    2    charge:   10.9483    magn:    0.9503    constr:    0.0000

     total cpu time spent up to now is       77.2 secs

     The total energy is the sum of the following terms:

     one-electron contribution =    -453.33811467 Ry
     hartree contribution      =     234.34602629 Ry
     xc contribution           =     -32.41889481 Ry
     ewald contribution        =      30.48060721 Ry

     total energy              =    -220.93127974 Ry
     Harris-Foulkes estimate   =    -220.93127975 Ry
     estimated scf accuracy    <       0.00000002 Ry

     total magnetization       =     1.00 Bohr mag/cell
     absolute magnetization    =     1.02 Bohr mag/cell

     iteration #  9     ecut=   100.00 Ry     beta=0.70
     Davidson diagonalization with overlap
     ethr =  8.02E-11,  avg # of iterations =  4.5
 
     Magnetic moment per site:
     atom:    1    charge:   11.8397    magn:    0.0052    constr:    0.0000
     atom:    2    charge:   10.9483    magn:    0.9503    constr:    0.0000

     total cpu time spent up to now is       82.7 secs

     End of self-consistent calculation

 ------ SPIN UP ------------


          k = 0.0000 0.0000 0.0000 (****** PWs)   bands (ev):

   -17.3738 -17.3682 -17.3682 -17.3557 -17.3551 -15.3837 -15.3831 -15.3819
   -15.3819 -15.3817 -13.2171 -10.0282

     occupation numbers 
     1.0000   1.0000   1.0000   1.0000   1.0000   1.0000   1.0000   1.0000
     1.0000   1.0000   1.0000   1.0000

 ------ SPIN DOWN ----------


          k = 0.0000 0.0000 0.0000 (****** PWs)   bands (ev):

   -17.3728 -17.3676 -17.3676 -17.3556 -17.3550 -15.1340 -15.1335 -15.1334
   -15.1334 -15.1334 -13.2110  -8.8654

     occupation numbers 
     1.0000   1.0000   1.0000   1.0000   1.0000   1.0000   1.0000   1.0000
     1.0000   1.0000   1.0000   0.0000

     highest occupied level (ev):   -10.0282

     The total energy is the sum of the following terms:

     one-electron contribution =    -453.33884388 Ry
     hartree contribution      =     234.34582606 Ry
     xc contribution           =     -32.41886914 Ry
     ewald contribution        =      30.48060721 Ry

!    total energy              =    -220.93127974 Ry
     Harris-Foulkes estimate   =    -220.93127974 Ry
     estimated scf accuracy    <          7.6E-10 Ry

     The total energy is the sum of the following terms:

     one-electron contribution =    -453.33884388 Ry
     hartree contribution      =     234.34582606 Ry
     xc contribution           =     -32.41886914 Ry
     ewald contribution        =      30.48060721 Ry

     total magnetization       =     1.00 Bohr mag/cell
     absolute magnetization    =     1.02 Bohr mag/cell

     convergence has been achieved in   9 iterations
 
     Using Hirshfeld
        Amplitude [Ry a.u.] :  3.3000E-01
        Acceptor Fragment start :           1
        Acceptor Fragment end   :           1
 
     E field correction :   0.330304537117928       Ry
     Total charge in well     :   -1.00092283975127       Ha atomic units

     Writing output data file left.save
 
     init_run     :     26.33s CPU     28.16s WALL (       1 calls)
     electrons    :     60.14s CPU     63.28s WALL (       1 calls)

     Called by init_run:
     wfcinit      :      2.58s CPU      2.62s WALL (       1 calls)
     potinit      :      1.99s CPU      2.23s WALL (       1 calls)

     Called by electrons:
     c_bands      :     29.46s CPU     29.57s WALL (       9 calls)
     sum_band     :      7.22s CPU      7.52s WALL (       9 calls)
     v_of_rho     :     14.31s CPU     15.72s WALL (      10 calls)
     v_h          :      0.89s CPU      0.99s WALL (      10 calls)
     v_xc         :     13.39s CPU     14.71s WALL (      10 calls)
     mix_rho      :      2.70s CPU      2.86s WALL (       9 calls)

     Called by c_bands:
     init_us_2    :      0.32s CPU      0.33s WALL (      38 calls)
     regterg      :     28.62s CPU     28.71s WALL (      18 calls)

     Called by sum_band:

     Called by *egterg:
     h_psi        :     27.69s CPU     27.76s WALL (      90 calls)
     g_psi        :      0.06s CPU      0.05s WALL (      70 calls)
     rdiaghg      :      0.56s CPU      0.54s WALL (      88 calls)
     regterg:over :      0.89s CPU      0.92s WALL (      70 calls)
     regterg:upda :      1.03s CPU      1.06s WALL (      70 calls)
     regterg:last :      0.30s CPU      0.31s WALL (      18 calls)
     rdiaghg:chol :      0.03s CPU      0.04s WALL (      88 calls)
     rdiaghg:inve :      0.00s CPU      0.01s WALL (      88 calls)
     rdiaghg:para :      0.08s CPU      0.05s WALL (     176 calls)

     Called by h_psi:
     h_psi:vloc   :     26.97s CPU     27.04s WALL (      90 calls)
     h_psi:vnl    :      0.59s CPU      0.60s WALL (      90 calls)
     add_vuspsi   :      0.28s CPU      0.27s WALL (      90 calls)

     General routines
     calbec       :      0.31s CPU      0.33s WALL (      90 calls)
     fft          :     18.65s CPU     21.11s WALL (     272 calls)
     fftw         :     26.95s CPU     27.07s WALL (     848 calls)
 
     Parallel routines
     fft_scatter  :     26.96s CPU     29.60s WALL (    1120 calls)
 
     PWSCF        :  2m16.26s CPU     2m38.12s WALL

 
   This run was terminated on:  13:27: 5  11Aug2015            

=------------------------------------------------------------------------------=
   JOB DONE.
=------------------------------------------------------------------------------=
Application 57820120 resources: utime ~30126s, stime ~1554s, Rss ~2184848, inblocks ~2270613, outblocks ~10898235
