
     Program PWSCF v.5.1.1 starts on 11Aug2015 at 13:27:19 

     This program is part of the open-source Quantum ESPRESSO suite
     for quantum simulation of materials; please cite
         "P. Giannozzi et al., J. Phys.:Condens. Matter 21 395502 (2009);
          URL http://www.quantum-espresso.org", 
     in publications or presentations arising from this work. More details at
     http://www.quantum-espresso.org/quote

     Parallel version (MPI & OpenMP), running on     198 processor cores
     Number of MPI processes:               198
     Threads/MPI process:                     1
     R & G space division:  proc/nbgrp/npool/nimage =     198
     Waiting for input...
     Reading input from standard input

     Current dimensions of program PWSCF are:
     Max number of different atomic species (ntypx) = 10
     Max number of k-points (npk) =  40000
     Max angular momentum in pseudopotentials (lmaxx) =  3
               file Zn.pbe-mt_fhi.UPF: wavefunction(s)  4p 4f renormalized

     gamma-point specific algorithms are used
     Message from routine setup:
     the system is metallic, specify occupations

     Subspace diagonalization in iterative solution of the eigenvalue problem:
     scalapack distributed-memory algorithm (size of sub-group:  9*  9 procs)

 
     Parallelization info
     --------------------
     sticks:   dense  smooth     PW     G-vecs:    dense   smooth      PW
     Min         516     516    128               124316   124316   15532
     Max         518     518    130               124342   124342   15554
     Sum      102325  102325  25581             24616397 24616397 3077481
     Tot       51163   51163  12791
 
     Generating pointlists ...
     new r_m :   0.0688 (alat units)  3.8976 (a.u.) for type    1


     bravais-lattice index     =            1
     lattice parameter (alat)  =      56.6918  a.u.
     unit-cell volume          =  182205.0337 (a.u.)^3
     number of atoms/cell      =            2
     number of atomic types    =            1
     number of electrons       =        23.00 (up:  12.00, down:  11.00)
     number of Kohn-Sham states=           12
     kinetic-energy cutoff     =     100.0000  Ry
     charge density cutoff     =     400.0000  Ry
     convergence threshold     =      1.0E-09
     mixing beta               =       0.7000
     number of iterations used =            8  plain     mixing
     Exchange-correlation      = PBE ( 1  4  3  4 0 0)
     Assuming isolated system, Martyna-Tuckerman method


     celldm(1)=  56.691784  celldm(2)=   0.000000  celldm(3)=   0.000000
     celldm(4)=   0.000000  celldm(5)=   0.000000  celldm(6)=   0.000000

     crystal axes: (cart. coord. in units of alat)
               a(1) = (   1.000000   0.000000   0.000000 )  
               a(2) = (   0.000000   1.000000   0.000000 )  
               a(3) = (   0.000000   0.000000   1.000000 )  

     reciprocal axes: (cart. coord. in units 2 pi/alat)
               b(1) = (  1.000000  0.000000  0.000000 )  
               b(2) = (  0.000000  1.000000  0.000000 )  
               b(3) = (  0.000000  0.000000  1.000000 )  


     PseudoPot. # 1 for Zn read from file:
     ../Zn.pbe-mt_fhi.UPF
     MD5 check sum: 5596c9f2b89b9f7367257e7ea958b26e
     Pseudo is Norm-conserving, Zval = 12.0
     Generated using FHI98PP, converted with fhi2upf.x v.5.0.2
     Using radial grid of  527 points,  3 beta functions with: 
                l(1) =   1
                l(2) =   2
                l(3) =   3

     atomic species   valence    mass     pseudopotential
        Zn            12.00    65.39000     Zn( 1.00)

     Starting magnetic structure 
     atomic species   magnetization
        Zn           0.000

     No symmetry found


                                    s                        frac. trans.

      isym =  1     identity                                     

 cryst.   s( 1) = (     1          0          0      )
                  (     0          1          0      )
                  (     0          0          1      )

 cart.    s( 1) = (  1.0000000  0.0000000  0.0000000 )
                  (  0.0000000  1.0000000  0.0000000 )
                  (  0.0000000  0.0000000  1.0000000 )


     point group C_1 (1)    
     there are  1 classes
     the character table:

       E    
A      1.00

     the symmetry operations in each class:
     E        1

   Cartesian axes

     site n.     atom                  positions (alat units)
         1           Zn  tau(   1) = (   0.0000000   0.0000000   0.0000000  )
         2           Zn  tau(   2) = (   0.1666667   0.0000000   0.0000000  )

   Crystallographic axes

     site n.     atom                  positions (cryst. coord.)
         1           Zn  tau(   1) = (  0.0000000  0.0000000  0.0000000  )
         2           Zn  tau(   2) = (  0.1666667  0.0000000  0.0000000  )

     number of k points=     2
                       cart. coord. in units 2pi/alat
        k(    1) = (   0.0000000   0.0000000   0.0000000), wk =   1.0000000
        k(    2) = (   0.0000000   0.0000000   0.0000000), wk =   1.0000000

                       cryst. coord.
        k(    1) = (   0.0000000   0.0000000   0.0000000), wk =   1.0000000
        k(    2) = (   0.0000000   0.0000000   0.0000000), wk =   1.0000000

     Dense  grid: 12308199 G-vectors     FFT dimensions: ( 375, 375, 375)

     Largest allocated arrays     est. size (Mb)     dimensions
        Kohn-Sham Wavefunctions         1.42 Mb     (    7771,   12)
        NL pseudopotentials             3.56 Mb     (    7771,   30)
        Each V/rho on FFT grid          8.58 Mb     (  281250,   2)
        Each G-vector array             0.47 Mb     (   62165)
        G-vector shells                 0.13 Mb     (   16426)
     Largest temporary arrays     est. size (Mb)     dimensions
        Auxiliary wavefunctions         2.85 Mb     (    7771,   48)
        Each subspace H/S matrix        0.00 Mb     (       5,    5)
        Each <psi_i|beta_j> matrix      0.00 Mb     (      30,   12)
        Arrays for rho mixing          34.33 Mb     (  281250,    8)
 
     Using Hirshfeld
        Amplitude [Ry a.u.] :  3.3000E-01
        Acceptor Fragment start :           2
        Acceptor Fragment end   :           2
 

     Initial potential from superposition of free atoms
     Check: negative starting charge=(component1):   -0.004915
     Check: negative starting charge=(component2):   -0.004915

     starting charge   23.99975, renormalised to   23.00000

     negative rho (up, down):  4.711E-03 4.711E-03
     Starting wfc are   32 randomized atomic wfcs

     total cpu time spent up to now is       28.6 secs

     per-process dynamical memory:    83.6 Mb

     Self-consistent Calculation

     iteration #  1     ecut=   100.00 Ry     beta=0.70
     Davidson diagonalization with overlap
     ethr =  1.00E-02,  avg # of iterations =  2.0

     negative rho (up, down):  1.320E-03 1.361E-03
 
     Magnetic moment per site:
     atom:    1    charge:   11.0627    magn:    0.6646    constr:    0.0000
     atom:    2    charge:   11.7468    magn:    0.0025    constr:    0.0000

     total cpu time spent up to now is       34.5 secs

     The total energy is the sum of the following terms:

     one-electron contribution =    -459.51468605 Ry
     hartree contribution      =     236.61085210 Ry
     xc contribution           =     -32.75372600 Ry
     ewald contribution        =      30.48060721 Ry

     total energy              =    -220.74806220 Ry
     Harris-Foulkes estimate   =    -221.29793330 Ry
     estimated scf accuracy    <       0.70794053 Ry

     total magnetization       =     1.00 Bohr mag/cell
     absolute magnetization    =     1.00 Bohr mag/cell

     iteration #  2     ecut=   100.00 Ry     beta=0.70
     Davidson diagonalization with overlap
     ethr =  3.08E-03,  avg # of iterations =  3.0

     negative rho (up, down):  5.662E-04 5.930E-04
 
     Magnetic moment per site:
     atom:    1    charge:   10.9975    magn:    0.8230    constr:    0.0000
     atom:    2    charge:   11.7924    magn:    0.0032    constr:    0.0000

     total cpu time spent up to now is       40.6 secs

     The total energy is the sum of the following terms:

     one-electron contribution =    -451.32710865 Ry
     hartree contribution      =     234.02615616 Ry
     xc contribution           =     -32.36178159 Ry
     ewald contribution        =      30.48060721 Ry

     total energy              =    -220.91311747 Ry
     Harris-Foulkes estimate   =    -220.95545192 Ry
     estimated scf accuracy    <       0.06718242 Ry

     total magnetization       =     1.00 Bohr mag/cell
     absolute magnetization    =     1.01 Bohr mag/cell

     iteration #  3     ecut=   100.00 Ry     beta=0.70
     Davidson diagonalization with overlap
     ethr =  2.92E-04,  avg # of iterations =  4.0

     negative rho (up, down):  9.892E-05 1.047E-04
 
     Magnetic moment per site:
     atom:    1    charge:   10.9564    magn:    0.9262    constr:    0.0000
     atom:    2    charge:   11.8343    magn:    0.0043    constr:    0.0000

     total cpu time spent up to now is       46.6 secs

     The total energy is the sum of the following terms:

     one-electron contribution =    -453.59493622 Ry
     hartree contribution      =     234.36189244 Ry
     xc contribution           =     -32.41607259 Ry
     ewald contribution        =      30.48060721 Ry

     total energy              =    -220.93052180 Ry
     Harris-Foulkes estimate   =    -220.93159792 Ry
     estimated scf accuracy    <       0.00268740 Ry

     total magnetization       =     1.00 Bohr mag/cell
     absolute magnetization    =     1.01 Bohr mag/cell

     iteration #  4     ecut=   100.00 Ry     beta=0.70
     Davidson diagonalization with overlap
     ethr =  1.17E-05,  avg # of iterations =  5.0

     negative rho (up, down):  1.638E-05 1.768E-05
 
     Magnetic moment per site:
     atom:    1    charge:   10.9500    magn:    0.9461    constr:    0.0000
     atom:    2    charge:   11.8392    magn:    0.0047    constr:    0.0000

     total cpu time spent up to now is       52.9 secs

     The total energy is the sum of the following terms:

     one-electron contribution =    -453.32063556 Ry
     hartree contribution      =     234.36496994 Ry
     xc contribution           =     -32.42008678 Ry
     ewald contribution        =      30.48060721 Ry

     total energy              =    -220.93123863 Ry
     Harris-Foulkes estimate   =    -220.93125654 Ry
     estimated scf accuracy    <       0.00020152 Ry

     total magnetization       =     1.00 Bohr mag/cell
     absolute magnetization    =     1.02 Bohr mag/cell

     iteration #  5     ecut=   100.00 Ry     beta=0.70
     Davidson diagonalization with overlap
     ethr =  8.76E-07,  avg # of iterations =  3.0
 
     Magnetic moment per site:
     atom:    1    charge:   10.9484    magn:    0.9504    constr:    0.0000
     atom:    2    charge:   11.8394    magn:    0.0050    constr:    0.0000

     total cpu time spent up to now is       58.6 secs

     The total energy is the sum of the following terms:

     one-electron contribution =    -453.32420661 Ry
     hartree contribution      =     234.33864627 Ry
     xc contribution           =     -32.41799461 Ry
     ewald contribution        =      30.48060721 Ry

     total energy              =    -220.93127727 Ry
     Harris-Foulkes estimate   =    -220.93127179 Ry
     estimated scf accuracy    <       0.00000970 Ry

     total magnetization       =     1.00 Bohr mag/cell
     absolute magnetization    =     1.02 Bohr mag/cell

     iteration #  6     ecut=   100.00 Ry     beta=0.70
     Davidson diagonalization with overlap
     ethr =  4.22E-08,  avg # of iterations =  6.5

     negative rho (up, down):  7.287E-10 4.344E-08
 
     Magnetic moment per site:
     atom:    1    charge:   10.9483    magn:    0.9505    constr:    0.0000
     atom:    2    charge:   11.8396    magn:    0.0051    constr:    0.0000

     total cpu time spent up to now is       65.3 secs

     The total energy is the sum of the following terms:

     one-electron contribution =    -453.34410898 Ry
     hartree contribution      =     234.34452324 Ry
     xc contribution           =     -32.41878193 Ry
     ewald contribution        =      30.48060721 Ry

     total energy              =    -220.93128018 Ry
     Harris-Foulkes estimate   =    -220.93128050 Ry
     estimated scf accuracy    <       0.00000089 Ry

     total magnetization       =     1.00 Bohr mag/cell
     absolute magnetization    =     1.02 Bohr mag/cell

     iteration #  7     ecut=   100.00 Ry     beta=0.70
     Davidson diagonalization with overlap
     ethr =  3.89E-09,  avg # of iterations =  3.0
 
     Magnetic moment per site:
     atom:    1    charge:   10.9483    magn:    0.9503    constr:    0.0000
     atom:    2    charge:   11.8397    magn:    0.0052    constr:    0.0000

     total cpu time spent up to now is       71.2 secs

     The total energy is the sum of the following terms:

     one-electron contribution =    -453.33992309 Ry
     hartree contribution      =     234.34697070 Ry
     xc contribution           =     -32.41901792 Ry
     ewald contribution        =      30.48060721 Ry

     total energy              =    -220.93128036 Ry
     Harris-Foulkes estimate   =    -220.93128038 Ry
     estimated scf accuracy    <       0.00000006 Ry

     total magnetization       =     1.00 Bohr mag/cell
     absolute magnetization    =     1.02 Bohr mag/cell

     iteration #  8     ecut=   100.00 Ry     beta=0.70
     Davidson diagonalization with overlap
     ethr =  2.64E-10,  avg # of iterations =  4.0
 
     Magnetic moment per site:
     atom:    1    charge:   10.9483    magn:    0.9503    constr:    0.0000
     atom:    2    charge:   11.8397    magn:    0.0052    constr:    0.0000

     total cpu time spent up to now is       77.5 secs

     The total energy is the sum of the following terms:

     one-electron contribution =    -453.33799988 Ry
     hartree contribution      =     234.34595410 Ry
     xc contribution           =     -32.41888627 Ry
     ewald contribution        =      30.48060721 Ry

     total energy              =    -220.93128038 Ry
     Harris-Foulkes estimate   =    -220.93128039 Ry
     estimated scf accuracy    <       0.00000002 Ry

     total magnetization       =     1.00 Bohr mag/cell
     absolute magnetization    =     1.02 Bohr mag/cell

     iteration #  9     ecut=   100.00 Ry     beta=0.70
     Davidson diagonalization with overlap
     ethr =  8.18E-11,  avg # of iterations =  4.5
 
     Magnetic moment per site:
     atom:    1    charge:   10.9483    magn:    0.9503    constr:    0.0000
     atom:    2    charge:   11.8397    magn:    0.0052    constr:    0.0000

     total cpu time spent up to now is       83.1 secs

     End of self-consistent calculation

 ------ SPIN UP ------------


          k = 0.0000 0.0000 0.0000 (****** PWs)   bands (ev):

   -17.3733 -17.3685 -17.3685 -17.3559 -17.3553 -15.3836 -15.3830 -15.3822
   -15.3817 -15.3817 -13.2172 -10.0281

     occupation numbers 
     1.0000   1.0000   1.0000   1.0000   1.0000   1.0000   1.0000   1.0000
     1.0000   1.0000   1.0000   1.0000

 ------ SPIN DOWN ----------


          k = 0.0000 0.0000 0.0000 (****** PWs)   bands (ev):

   -17.3724 -17.3679 -17.3679 -17.3558 -17.3552 -15.1340 -15.1339 -15.1334
   -15.1332 -15.1332 -13.2111  -8.8653

     occupation numbers 
     1.0000   1.0000   1.0000   1.0000   1.0000   1.0000   1.0000   1.0000
     1.0000   1.0000   1.0000   0.0000

     highest occupied level (ev):   -10.0281

     The total energy is the sum of the following terms:

     one-electron contribution =    -453.33892200 Ry
     hartree contribution      =     234.34591560 Ry
     xc contribution           =     -32.41888120 Ry
     ewald contribution        =      30.48060721 Ry

!    total energy              =    -220.93128038 Ry
     Harris-Foulkes estimate   =    -220.93128038 Ry
     estimated scf accuracy    <          4.7E-10 Ry

     The total energy is the sum of the following terms:

     one-electron contribution =    -453.33892200 Ry
     hartree contribution      =     234.34591560 Ry
     xc contribution           =     -32.41888120 Ry
     ewald contribution        =      30.48060721 Ry

     total magnetization       =     1.00 Bohr mag/cell
     absolute magnetization    =     1.02 Bohr mag/cell

     convergence has been achieved in   9 iterations
 
     Using Hirshfeld
        Amplitude [Ry a.u.] :  3.3000E-01
        Acceptor Fragment start :           2
        Acceptor Fragment end   :           2
 
     E field correction :   0.330303686784775       Ry
     Total charge in well     :   -1.00092026298417       Ha atomic units

     Writing output data file right.save
 
     init_run     :     26.59s CPU     28.42s WALL (       1 calls)
     electrons    :     60.23s CPU     63.40s WALL (       1 calls)

     Called by init_run:
     wfcinit      :      2.59s CPU      2.62s WALL (       1 calls)
     potinit      :      2.02s CPU      2.22s WALL (       1 calls)

     Called by electrons:
     c_bands      :     29.50s CPU     29.65s WALL (       9 calls)
     sum_band     :      7.21s CPU      7.53s WALL (       9 calls)
     v_of_rho     :     14.40s CPU     15.73s WALL (      10 calls)
     v_h          :      0.90s CPU      0.99s WALL (      10 calls)
     v_xc         :     13.46s CPU     14.72s WALL (      10 calls)
     mix_rho      :      2.69s CPU      2.86s WALL (       9 calls)

     Called by c_bands:
     init_us_2    :      0.32s CPU      0.33s WALL (      38 calls)
     regterg      :     28.67s CPU     28.80s WALL (      18 calls)

     Called by sum_band:

     Called by *egterg:
     h_psi        :     27.73s CPU     27.86s WALL (      90 calls)
     g_psi        :      0.04s CPU      0.05s WALL (      70 calls)
     rdiaghg      :      0.51s CPU      0.54s WALL (      88 calls)
     regterg:over :      0.93s CPU      0.91s WALL (      70 calls)
     regterg:upda :      1.08s CPU      1.06s WALL (      70 calls)
     regterg:last :      0.30s CPU      0.31s WALL (      18 calls)
     rdiaghg:chol :      0.06s CPU      0.04s WALL (      88 calls)
     rdiaghg:inve :      0.00s CPU      0.01s WALL (      88 calls)
     rdiaghg:para :      0.05s CPU      0.05s WALL (     176 calls)

     Called by h_psi:
     h_psi:vloc   :     27.03s CPU     27.14s WALL (      90 calls)
     h_psi:vnl    :      0.60s CPU      0.60s WALL (      90 calls)
     add_vuspsi   :      0.26s CPU      0.27s WALL (      90 calls)

     General routines
     calbec       :      0.34s CPU      0.33s WALL (      90 calls)
     fft          :     18.68s CPU     21.09s WALL (     272 calls)
     fftw         :     27.00s CPU     27.14s WALL (     850 calls)
 
     Parallel routines
     fft_scatter  :     27.24s CPU     29.60s WALL (    1122 calls)
 
     PWSCF        :  2m16.87s CPU     2m38.30s WALL

 
   This run was terminated on:  13:29:57  11Aug2015            

=------------------------------------------------------------------------------=
   JOB DONE.
=------------------------------------------------------------------------------=
Application 57820346 resources: utime ~30084s, stime ~1548s, Rss ~2184888, inblocks ~2263745, outblocks ~10897275
