<UPF version="2.0.1">
  <PP_INFO>

 This pseudopotential file has been produced using the code
 ONCVPSP  (Optimized Norm-Conservinng Vanderbilt PSeudopotential)
 scalar-relativistic version 3.2.2 08/07/2015 by D. R. Hamann
 The code is available through a link at URL www.mat-simresearch.com.
 Documentation with the package provides a full discription of the
 input data below.


 While it is not required under the terms of the GNU GPL, it is
 suggested that you cite D. R. Hamann, Phys. Rev. B 88, 085117 (2013)
 in any publication using these pseudopotentials.

    <PP_INPUTFILE>
# ATOM AND REFERENCE CONFIGURATION
# atsym  z   nc   nv     iexc    psfile
  He  2.00    0    1       4      upf
#
#   n    l    f        energy (Ha)
    1    0    2.00
#
# PSEUDOPOTENTIAL AND OPTIMIZATION
# lmax
    0
#
#   l,   rc,     ep,   ncon, nbas, qcut
    0    1.99   -0.58    5    8    7.17
#
# LOCAL POTENTIAL
# lloc, lpopt,  rc(5),   dvloc0
    4    5      0.89       0.00
#
# VANDERBILT-KLEINMAN-BYLANDER PROJECTORs
# l, nproj, debl
    0    2    1.3402
#
# MODEL CORE CHARGE
# icmod, fcfact
    0    0.00
#
# LOG DERIVATIVE ANALYSIS
# epsh1, epsh2, depsh
   -5.00    3.00    0.02
#
# OUTPUT GRID
# rlmax, drl
    6.00    0.01
#
# TEST CONFIGURATIONS
# ncnf
    0
# nvcnf
#   n    l    f
    </PP_INPUTFILE>
  </PP_INFO>
  <!--                               -->
  <!-- END OF HUMAN READABLE SECTION -->
  <!--                               -->
    <PP_HEADER
       generated="Generated using ONCVPSP code by D. R. Hamann"
       author="anonymous"
       date="160330"
       comment=""
       element="He"
       pseudo_type="NC"
       relativistic="scalar"
       is_ultrasoft="F"
       is_paw="F"
       is_coulomb="F"
       has_so="F"
       has_wfc="F"
       has_gipaw="F"
       core_correction="F"
       functional="PBE"
       z_valence="    2.00"
       total_psenergy="  -5.58120711426E+00"
       rho_cutoff="   7.21000000000E+00"
       l_max="0"
       l_local="-1"
       mesh_size="   722"
       number_of_wfc="1"
       number_of_proj="2"/>
 <PP_MESH>
   <PP_R type="real"  size=" 722" columns="8">
    0.0000    0.0100    0.0200    0.0300    0.0400    0.0500    0.0600    0.0700
    0.0800    0.0900    0.1000    0.1100    0.1200    0.1300    0.1400    0.1500
    0.1600    0.1700    0.1800    0.1900    0.2000    0.2100    0.2200    0.2300
    0.2400    0.2500    0.2600    0.2700    0.2800    0.2900    0.3000    0.3100
    0.3200    0.3300    0.3400    0.3500    0.3600    0.3700    0.3800    0.3900
    0.4000    0.4100    0.4200    0.4300    0.4400    0.4500    0.4600    0.4700
    0.4800    0.4900    0.5000    0.5100    0.5200    0.5300    0.5400    0.5500
    0.5600    0.5700    0.5800    0.5900    0.6000    0.6100    0.6200    0.6300
    0.6400    0.6500    0.6600    0.6700    0.6800    0.6900    0.7000    0.7100
    0.7200    0.7300    0.7400    0.7500    0.7600    0.7700    0.7800    0.7900
    0.8000    0.8100    0.8200    0.8300    0.8400    0.8500    0.8600    0.8700
    0.8800    0.8900    0.9000    0.9100    0.9200    0.9300    0.9400    0.9500
    0.9600    0.9700    0.9800    0.9900    1.0000    1.0100    1.0200    1.0300
    1.0400    1.0500    1.0600    1.0700    1.0800    1.0900    1.1000    1.1100
    1.1200    1.1300    1.1400    1.1500    1.1600    1.1700    1.1800    1.1900
    1.2000    1.2100    1.2200    1.2300    1.2400    1.2500    1.2600    1.2700
    1.2800    1.2900    1.3000    1.3100    1.3200    1.3300    1.3400    1.3500
    1.3600    1.3700    1.3800    1.3900    1.4000    1.4100    1.4200    1.4300
    1.4400    1.4500    1.4600    1.4700    1.4800    1.4900    1.5000    1.5100
    1.5200    1.5300    1.5400    1.5500    1.5600    1.5700    1.5800    1.5900
    1.6000    1.6100    1.6200    1.6300    1.6400    1.6500    1.6600    1.6700
    1.6800    1.6900    1.7000    1.7100    1.7200    1.7300    1.7400    1.7500
    1.7600    1.7700    1.7800    1.7900    1.8000    1.8100    1.8200    1.8300
    1.8400    1.8500    1.8600    1.8700    1.8800    1.8900    1.9000    1.9100
    1.9200    1.9300    1.9400    1.9500    1.9600    1.9700    1.9800    1.9900
    2.0000    2.0100    2.0200    2.0300    2.0400    2.0500    2.0600    2.0700
    2.0800    2.0900    2.1000    2.1100    2.1200    2.1300    2.1400    2.1500
    2.1600    2.1700    2.1800    2.1900    2.2000    2.2100    2.2200    2.2300
    2.2400    2.2500    2.2600    2.2700    2.2800    2.2900    2.3000    2.3100
    2.3200    2.3300    2.3400    2.3500    2.3600    2.3700    2.3800    2.3900
    2.4000    2.4100    2.4200    2.4300    2.4400    2.4500    2.4600    2.4700
    2.4800    2.4900    2.5000    2.5100    2.5200    2.5300    2.5400    2.5500
    2.5600    2.5700    2.5800    2.5900    2.6000    2.6100    2.6200    2.6300
    2.6400    2.6500    2.6600    2.6700    2.6800    2.6900    2.7000    2.7100
    2.7200    2.7300    2.7400    2.7500    2.7600    2.7700    2.7800    2.7900
    2.8000    2.8100    2.8200    2.8300    2.8400    2.8500    2.8600    2.8700
    2.8800    2.8900    2.9000    2.9100    2.9200    2.9300    2.9400    2.9500
    2.9600    2.9700    2.9800    2.9900    3.0000    3.0100    3.0200    3.0300
    3.0400    3.0500    3.0600    3.0700    3.0800    3.0900    3.1000    3.1100
    3.1200    3.1300    3.1400    3.1500    3.1600    3.1700    3.1800    3.1900
    3.2000    3.2100    3.2200    3.2300    3.2400    3.2500    3.2600    3.2700
    3.2800    3.2900    3.3000    3.3100    3.3200    3.3300    3.3400    3.3500
    3.3600    3.3700    3.3800    3.3900    3.4000    3.4100    3.4200    3.4300
    3.4400    3.4500    3.4600    3.4700    3.4800    3.4900    3.5000    3.5100
    3.5200    3.5300    3.5400    3.5500    3.5600    3.5700    3.5800    3.5900
    3.6000    3.6100    3.6200    3.6300    3.6400    3.6500    3.6600    3.6700
    3.6800    3.6900    3.7000    3.7100    3.7200    3.7300    3.7400    3.7500
    3.7600    3.7700    3.7800    3.7900    3.8000    3.8100    3.8200    3.8300
    3.8400    3.8500    3.8600    3.8700    3.8800    3.8900    3.9000    3.9100
    3.9200    3.9300    3.9400    3.9500    3.9600    3.9700    3.9800    3.9900
    4.0000    4.0100    4.0200    4.0300    4.0400    4.0500    4.0600    4.0700
    4.0800    4.0900    4.1000    4.1100    4.1200    4.1300    4.1400    4.1500
    4.1600    4.1700    4.1800    4.1900    4.2000    4.2100    4.2200    4.2300
    4.2400    4.2500    4.2600    4.2700    4.2800    4.2900    4.3000    4.3100
    4.3200    4.3300    4.3400    4.3500    4.3600    4.3700    4.3800    4.3900
    4.4000    4.4100    4.4200    4.4300    4.4400    4.4500    4.4600    4.4700
    4.4800    4.4900    4.5000    4.5100    4.5200    4.5300    4.5400    4.5500
    4.5600    4.5700    4.5800    4.5900    4.6000    4.6100    4.6200    4.6300
    4.6400    4.6500    4.6600    4.6700    4.6800    4.6900    4.7000    4.7100
    4.7200    4.7300    4.7400    4.7500    4.7600    4.7700    4.7800    4.7900
    4.8000    4.8100    4.8200    4.8300    4.8400    4.8500    4.8600    4.8700
    4.8800    4.8900    4.9000    4.9100    4.9200    4.9300    4.9400    4.9500
    4.9600    4.9700    4.9800    4.9900    5.0000    5.0100    5.0200    5.0300
    5.0400    5.0500    5.0600    5.0700    5.0800    5.0900    5.1000    5.1100
    5.1200    5.1300    5.1400    5.1500    5.1600    5.1700    5.1800    5.1900
    5.2000    5.2100    5.2200    5.2300    5.2400    5.2500    5.2600    5.2700
    5.2800    5.2900    5.3000    5.3100    5.3200    5.3300    5.3400    5.3500
    5.3600    5.3700    5.3800    5.3900    5.4000    5.4100    5.4200    5.4300
    5.4400    5.4500    5.4600    5.4700    5.4800    5.4900    5.5000    5.5100
    5.5200    5.5300    5.5400    5.5500    5.5600    5.5700    5.5800    5.5900
    5.6000    5.6100    5.6200    5.6300    5.6400    5.6500    5.6600    5.6700
    5.6800    5.6900    5.7000    5.7100    5.7200    5.7300    5.7400    5.7500
    5.7600    5.7700    5.7800    5.7900    5.8000    5.8100    5.8200    5.8300
    5.8400    5.8500    5.8600    5.8700    5.8800    5.8900    5.9000    5.9100
    5.9200    5.9300    5.9400    5.9500    5.9600    5.9700    5.9800    5.9900
    6.0000    6.0100    6.0200    6.0300    6.0400    6.0500    6.0600    6.0700
    6.0800    6.0900    6.1000    6.1100    6.1200    6.1300    6.1400    6.1500
    6.1600    6.1700    6.1800    6.1900    6.2000    6.2100    6.2200    6.2300
    6.2400    6.2500    6.2600    6.2700    6.2800    6.2900    6.3000    6.3100
    6.3200    6.3300    6.3400    6.3500    6.3600    6.3700    6.3800    6.3900
    6.4000    6.4100    6.4200    6.4300    6.4400    6.4500    6.4600    6.4700
    6.4800    6.4900    6.5000    6.5100    6.5200    6.5300    6.5400    6.5500
    6.5600    6.5700    6.5800    6.5900    6.6000    6.6100    6.6200    6.6300
    6.6400    6.6500    6.6600    6.6700    6.6800    6.6900    6.7000    6.7100
    6.7200    6.7300    6.7400    6.7500    6.7600    6.7700    6.7800    6.7900
    6.8000    6.8100    6.8200    6.8300    6.8400    6.8500    6.8600    6.8700
    6.8800    6.8900    6.9000    6.9100    6.9200    6.9300    6.9400    6.9500
    6.9600    6.9700    6.9800    6.9900    7.0000    7.0100    7.0200    7.0300
    7.0400    7.0500    7.0600    7.0700    7.0800    7.0900    7.1000    7.1100
    7.1200    7.1300    7.1400    7.1500    7.1600    7.1700    7.1800    7.1900
    7.2000    7.2100
   </PP_R>
   <PP_RAB type="real"  size=" 722" columns="8">
    0.0100    0.0100    0.0100    0.0100    0.0100    0.0100    0.0100    0.0100
    0.0100    0.0100    0.0100    0.0100    0.0100    0.0100    0.0100    0.0100
    0.0100    0.0100    0.0100    0.0100    0.0100    0.0100    0.0100    0.0100
    0.0100    0.0100    0.0100    0.0100    0.0100    0.0100    0.0100    0.0100
    0.0100    0.0100    0.0100    0.0100    0.0100    0.0100    0.0100    0.0100
    0.0100    0.0100    0.0100    0.0100    0.0100    0.0100    0.0100    0.0100
    0.0100    0.0100    0.0100    0.0100    0.0100    0.0100    0.0100    0.0100
    0.0100    0.0100    0.0100    0.0100    0.0100    0.0100    0.0100    0.0100
    0.0100    0.0100    0.0100    0.0100    0.0100    0.0100    0.0100    0.0100
    0.0100    0.0100    0.0100    0.0100    0.0100    0.0100    0.0100    0.0100
    0.0100    0.0100    0.0100    0.0100    0.0100    0.0100    0.0100    0.0100
    0.0100    0.0100    0.0100    0.0100    0.0100    0.0100    0.0100    0.0100
    0.0100    0.0100    0.0100    0.0100    0.0100    0.0100    0.0100    0.0100
    0.0100    0.0100    0.0100    0.0100    0.0100    0.0100    0.0100    0.0100
    0.0100    0.0100    0.0100    0.0100    0.0100    0.0100    0.0100    0.0100
    0.0100    0.0100    0.0100    0.0100    0.0100    0.0100    0.0100    0.0100
    0.0100    0.0100    0.0100    0.0100    0.0100    0.0100    0.0100    0.0100
    0.0100    0.0100    0.0100    0.0100    0.0100    0.0100    0.0100    0.0100
    0.0100    0.0100    0.0100    0.0100    0.0100    0.0100    0.0100    0.0100
    0.0100    0.0100    0.0100    0.0100    0.0100    0.0100    0.0100    0.0100
    0.0100    0.0100    0.0100    0.0100    0.0100    0.0100    0.0100    0.0100
    0.0100    0.0100    0.0100    0.0100    0.0100    0.0100    0.0100    0.0100
    0.0100    0.0100    0.0100    0.0100    0.0100    0.0100    0.0100    0.0100
    0.0100    0.0100    0.0100    0.0100    0.0100    0.0100    0.0100    0.0100
    0.0100    0.0100    0.0100    0.0100    0.0100    0.0100    0.0100    0.0100
    0.0100    0.0100    0.0100    0.0100    0.0100    0.0100    0.0100    0.0100
    0.0100    0.0100    0.0100    0.0100    0.0100    0.0100    0.0100    0.0100
    0.0100    0.0100    0.0100    0.0100    0.0100    0.0100    0.0100    0.0100
    0.0100    0.0100    0.0100    0.0100    0.0100    0.0100    0.0100    0.0100
    0.0100    0.0100    0.0100    0.0100    0.0100    0.0100    0.0100    0.0100
    0.0100    0.0100    0.0100    0.0100    0.0100    0.0100    0.0100    0.0100
    0.0100    0.0100    0.0100    0.0100    0.0100    0.0100    0.0100    0.0100
    0.0100    0.0100    0.0100    0.0100    0.0100    0.0100    0.0100    0.0100
    0.0100    0.0100    0.0100    0.0100    0.0100    0.0100    0.0100    0.0100
    0.0100    0.0100    0.0100    0.0100    0.0100    0.0100    0.0100    0.0100
    0.0100    0.0100    0.0100    0.0100    0.0100    0.0100    0.0100    0.0100
    0.0100    0.0100    0.0100    0.0100    0.0100    0.0100    0.0100    0.0100
    0.0100    0.0100    0.0100    0.0100    0.0100    0.0100    0.0100    0.0100
    0.0100    0.0100    0.0100    0.0100    0.0100    0.0100    0.0100    0.0100
    0.0100    0.0100    0.0100    0.0100    0.0100    0.0100    0.0100    0.0100
    0.0100    0.0100    0.0100    0.0100    0.0100    0.0100    0.0100    0.0100
    0.0100    0.0100    0.0100    0.0100    0.0100    0.0100    0.0100    0.0100
    0.0100    0.0100    0.0100    0.0100    0.0100    0.0100    0.0100    0.0100
    0.0100    0.0100    0.0100    0.0100    0.0100    0.0100    0.0100    0.0100
    0.0100    0.0100    0.0100    0.0100    0.0100    0.0100    0.0100    0.0100
    0.0100    0.0100    0.0100    0.0100    0.0100    0.0100    0.0100    0.0100
    0.0100    0.0100    0.0100    0.0100    0.0100    0.0100    0.0100    0.0100
    0.0100    0.0100    0.0100    0.0100    0.0100    0.0100    0.0100    0.0100
    0.0100    0.0100    0.0100    0.0100    0.0100    0.0100    0.0100    0.0100
    0.0100    0.0100    0.0100    0.0100    0.0100    0.0100    0.0100    0.0100
    0.0100    0.0100    0.0100    0.0100    0.0100    0.0100    0.0100    0.0100
    0.0100    0.0100    0.0100    0.0100    0.0100    0.0100    0.0100    0.0100
    0.0100    0.0100    0.0100    0.0100    0.0100    0.0100    0.0100    0.0100
    0.0100    0.0100    0.0100    0.0100    0.0100    0.0100    0.0100    0.0100
    0.0100    0.0100    0.0100    0.0100    0.0100    0.0100    0.0100    0.0100
    0.0100    0.0100    0.0100    0.0100    0.0100    0.0100    0.0100    0.0100
    0.0100    0.0100    0.0100    0.0100    0.0100    0.0100    0.0100    0.0100
    0.0100    0.0100    0.0100    0.0100    0.0100    0.0100    0.0100    0.0100
    0.0100    0.0100    0.0100    0.0100    0.0100    0.0100    0.0100    0.0100
    0.0100    0.0100    0.0100    0.0100    0.0100    0.0100    0.0100    0.0100
    0.0100    0.0100    0.0100    0.0100    0.0100    0.0100    0.0100    0.0100
    0.0100    0.0100    0.0100    0.0100    0.0100    0.0100    0.0100    0.0100
    0.0100    0.0100    0.0100    0.0100    0.0100    0.0100    0.0100    0.0100
    0.0100    0.0100    0.0100    0.0100    0.0100    0.0100    0.0100    0.0100
    0.0100    0.0100    0.0100    0.0100    0.0100    0.0100    0.0100    0.0100
    0.0100    0.0100    0.0100    0.0100    0.0100    0.0100    0.0100    0.0100
    0.0100    0.0100    0.0100    0.0100    0.0100    0.0100    0.0100    0.0100
    0.0100    0.0100    0.0100    0.0100    0.0100    0.0100    0.0100    0.0100
    0.0100    0.0100    0.0100    0.0100    0.0100    0.0100    0.0100    0.0100
    0.0100    0.0100    0.0100    0.0100    0.0100    0.0100    0.0100    0.0100
    0.0100    0.0100    0.0100    0.0100    0.0100    0.0100    0.0100    0.0100
    0.0100    0.0100    0.0100    0.0100    0.0100    0.0100    0.0100    0.0100
    0.0100    0.0100    0.0100    0.0100    0.0100    0.0100    0.0100    0.0100
    0.0100    0.0100    0.0100    0.0100    0.0100    0.0100    0.0100    0.0100
    0.0100    0.0100    0.0100    0.0100    0.0100    0.0100    0.0100    0.0100
    0.0100    0.0100    0.0100    0.0100    0.0100    0.0100    0.0100    0.0100
    0.0100    0.0100    0.0100    0.0100    0.0100    0.0100    0.0100    0.0100
    0.0100    0.0100    0.0100    0.0100    0.0100    0.0100    0.0100    0.0100
    0.0100    0.0100    0.0100    0.0100    0.0100    0.0100    0.0100    0.0100
    0.0100    0.0100    0.0100    0.0100    0.0100    0.0100    0.0100    0.0100
    0.0100    0.0100    0.0100    0.0100    0.0100    0.0100    0.0100    0.0100
    0.0100    0.0100    0.0100    0.0100    0.0100    0.0100    0.0100    0.0100
    0.0100    0.0100    0.0100    0.0100    0.0100    0.0100    0.0100    0.0100
    0.0100    0.0100    0.0100    0.0100    0.0100    0.0100    0.0100    0.0100
    0.0100    0.0100    0.0100    0.0100    0.0100    0.0100    0.0100    0.0100
    0.0100    0.0100    0.0100    0.0100    0.0100    0.0100    0.0100    0.0100
    0.0100    0.0100    0.0100    0.0100    0.0100    0.0100    0.0100    0.0100
    0.0100    0.0100    0.0100    0.0100    0.0100    0.0100    0.0100    0.0100
    0.0100    0.0100    0.0100    0.0100    0.0100    0.0100    0.0100    0.0100
    0.0100    0.0100    0.0100    0.0100    0.0100    0.0100    0.0100    0.0100
    0.0100    0.0100
   </PP_RAB>
 </PP_MESH>
  <PP_LOCAL type="real"  size=" 722" columns="4">
   -9.7051001296E+00   -9.7037076271E+00   -9.6995321802E+00   -9.6925799316E+00
   -9.6828610863E+00   -9.6703898607E+00   -9.6551844127E+00   -9.6372667535E+00
   -9.6166626433E+00   -9.5934014725E+00   -9.5675161293E+00   -9.5390428566E+00
   -9.5080210999E+00   -9.4744933479E+00   -9.4385049690E+00   -9.4001040440E+00
   -9.3593411981E+00   -9.3162694342E+00   -9.2709439672E+00   -9.2234220631E+00
   -9.1737628821E+00   -9.1220273276E+00   -9.0682779016E+00   -9.0125785666E+00
   -8.9549946158E+00   -8.8955925490E+00   -8.8344399573E+00   -8.7716054138E+00
   -8.7071583720E+00   -8.6411690694E+00   -8.5737084383E+00   -8.5048480210E+00
   -8.4346598900E+00   -8.3632165719E+00   -8.2905909758E+00   -8.2168563230E+00
   -8.1420860800E+00   -8.0663538926E+00   -7.9897335214E+00   -7.9122987769E+00
   -7.8341234560E+00   -7.7552812767E+00   -7.6758458127E+00   -7.5958904271E+00
   -7.5154882037E+00   -7.4347118775E+00   -7.3536337627E+00   -7.2723256791E+00
   -7.1908588753E+00   -7.1093039511E+00   -7.0277307759E+00   -6.9462084056E+00
   -6.8648049969E+00   -6.7835877190E+00   -6.7026226628E+00   -6.6219747483E+00
   -6.5417076290E+00   -6.4618835949E+00   -6.3825634729E+00   -6.3038065257E+00
   -6.2256703486E+00   -6.1482107653E+00   -6.0714817218E+00   -5.9955351795E+00
   -5.9204210070E+00   -5.8461868722E+00   -5.7728781321E+00   -5.7005377246E+00
   -5.6292060587E+00   -5.5589209056E+00   -5.4897172905E+00   -5.4216273853E+00
   -5.3546804015E+00   -5.2889024853E+00   -5.2243166136E+00   -5.1609424918E+00
   -5.0987964527E+00   -5.0378913578E+00   -4.9782364995E+00   -4.9198375055E+00
   -4.8626962441E+00   -4.8068107311E+00   -4.7521750373E+00   -4.6987791968E+00
   -4.6466091151E+00   -4.5956464775E+00   -4.5458686557E+00   -4.4972486132E+00
   -4.4497548074E+00   -4.4033511315E+00   -4.3579966449E+00   -4.3136473072E+00
   -4.2702595337E+00   -4.2277919296E+00   -4.1862050547E+00   -4.1454614237E+00
   -4.1055254587E+00   -4.0663634411E+00   -4.0279434648E+00   -3.9902353866E+00
   -3.9532107756E+00   -3.9168428610E+00   -3.8811064769E+00   -3.8459780057E+00
   -3.8114353191E+00   -3.7774577175E+00   -3.7440258673E+00   -3.7111217372E+00
   -3.6787285328E+00   -3.6468306314E+00   -3.6154135152E+00   -3.5844637055E+00
   -3.5539686964E+00   -3.5239168902E+00   -3.4942975333E+00   -3.4651006530E+00
   -3.4363169967E+00   -3.4079379746E+00   -3.3799556014E+00   -3.3523624425E+00
   -3.3251515628E+00   -3.2983164778E+00   -3.2718511078E+00   -3.2457497344E+00
   -3.2200069604E+00   -3.1946176725E+00   -3.1695770067E+00   -3.1448803161E+00
   -3.1205231417E+00   -3.0965011856E+00   -3.0728102866E+00   -3.0494463973E+00
   -3.0264055647E+00   -3.0036839108E+00   -2.9812776163E+00   -2.9591829056E+00
   -2.9373960324E+00   -2.9159132676E+00   -2.8947308877E+00   -2.8738451643E+00
   -2.8532523544E+00   -2.8329486924E+00   -2.8129303812E+00   -2.7931935860E+00
   -2.7737344274E+00   -2.7545489757E+00   -2.7356332465E+00   -2.7169831959E+00
   -2.6985947181E+00   -2.6804636426E+00   -2.6625857332E+00   -2.6449566876E+00
   -2.6275721385E+00   -2.6104276559E+00   -2.5935187499E+00   -2.5768408762E+00
   -2.5603894416E+00   -2.5441598114E+00   -2.5281473181E+00   -2.5123472711E+00
   -2.4967549677E+00   -2.4813657050E+00   -2.4661747929E+00   -2.4511775675E+00
   -2.4363694056E+00   -2.4217457385E+00   -2.4073020672E+00   -2.3930339766E+00
   -2.3789371494E+00   -2.3650073799E+00   -2.3512405867E+00   -2.3376328240E+00
   -2.3241802923E+00   -2.3108793477E+00   -2.2977265085E+00   -2.2847184618E+00
   -2.2718520670E+00   -2.2591243583E+00   -2.2465325442E+00   -2.2340740069E+00
   -2.2217462980E+00   -2.2095471337E+00   -2.1974743878E+00   -2.1855260833E+00
   -2.1737003824E+00   -2.1619955757E+00   -2.1504100697E+00   -2.1389423742E+00
   -2.1275910881E+00   -2.1163548857E+00   -2.1052325021E+00   -2.0942227184E+00
   -2.0833243474E+00   -2.0725362199E+00   -2.0618571712E+00   -2.0512860267E+00
   -2.0408215925E+00   -2.0304626404E+00   -2.0202078954E+00   -2.0100560279E+00
   -2.0000056580E+00   -1.9900553249E+00   -1.9802035423E+00   -1.9704488334E+00
   -1.9607897473E+00   -1.9512248665E+00   -1.9417528330E+00   -1.9323723235E+00
   -1.9230820202E+00   -1.9138806228E+00   -1.9047668569E+00   -1.8957394782E+00
   -1.8867972649E+00   -1.8779390177E+00   -1.8691635593E+00   -1.8604697343E+00
   -1.8518564091E+00   -1.8433224707E+00   -1.8348668267E+00   -1.8264884045E+00
   -1.8181861510E+00   -1.8099590323E+00   -1.8018060331E+00   -1.7937261561E+00
   -1.7857184222E+00   -1.7777818693E+00   -1.7699155525E+00   -1.7621185437E+00
   -1.7543899308E+00   -1.7467288179E+00   -1.7391343244E+00   -1.7316055851E+00
   -1.7241417499E+00   -1.7167419829E+00   -1.7094054627E+00   -1.7021313821E+00
   -1.6949189471E+00   -1.6877673775E+00   -1.6806759060E+00   -1.6736437782E+00
   -1.6666702524E+00   -1.6597545990E+00   -1.6528961005E+00   -1.6460940514E+00
   -1.6393477575E+00   -1.6326565362E+00   -1.6260197157E+00   -1.6194366353E+00
   -1.6129066450E+00   -1.6064291051E+00   -1.6000033860E+00   -1.5936288685E+00
   -1.5873049430E+00   -1.5810310096E+00   -1.5748064777E+00   -1.5686307662E+00
   -1.5625033029E+00   -1.5564235246E+00   -1.5503908768E+00   -1.5444048135E+00
   -1.5384647973E+00   -1.5325702989E+00   -1.5267207970E+00   -1.5209157783E+00
   -1.5151547373E+00   -1.5094371763E+00   -1.5037626046E+00   -1.4981305394E+00
   -1.4925405048E+00   -1.4869920320E+00   -1.4814846592E+00   -1.4760179315E+00
   -1.4705914004E+00   -1.4652046243E+00   -1.4598571679E+00   -1.4545486023E+00
   -1.4492785046E+00   -1.4440464583E+00   -1.4388520527E+00   -1.4336948831E+00
   -1.4285745504E+00   -1.4234906615E+00   -1.4184428286E+00   -1.4134306694E+00
   -1.4084538072E+00   -1.4035118704E+00   -1.3986044925E+00   -1.3937313124E+00
   -1.3888919738E+00   -1.3840861255E+00   -1.3793134208E+00   -1.3745735183E+00
   -1.3698660808E+00   -1.3651907759E+00   -1.3605472757E+00   -1.3559352569E+00
   -1.3513544002E+00   -1.3468043910E+00   -1.3422849187E+00   -1.3377956769E+00
   -1.3333363633E+00   -1.3289066795E+00   -1.3245063313E+00   -1.3201350282E+00
   -1.3157924836E+00   -1.3114784146E+00   -1.3071925419E+00   -1.3029345901E+00
   -1.2987042873E+00   -1.2945013649E+00   -1.2903255580E+00   -1.2861766051E+00
   -1.2820542478E+00   -1.2779582314E+00   -1.2738883041E+00   -1.2698442174E+00
   -1.2658257261E+00   -1.2618325879E+00   -1.2578645637E+00   -1.2539214171E+00
   -1.2500029151E+00   -1.2461088273E+00   -1.2422389263E+00   -1.2383929873E+00
   -1.2345707885E+00   -1.2307721108E+00   -1.2269967377E+00   -1.2232444555E+00
   -1.2195150528E+00   -1.2158083212E+00   -1.2121240544E+00   -1.2084620489E+00
   -1.2048221035E+00   -1.2012040196E+00   -1.1976076006E+00   -1.1940326527E+00
   -1.1904789840E+00   -1.1869464053E+00   -1.1834347292E+00   -1.1799437709E+00
   -1.1764733474E+00   -1.1730232782E+00   -1.1695933847E+00   -1.1661834904E+00
   -1.1627934210E+00   -1.1594230040E+00   -1.1560720691E+00   -1.1527404478E+00
   -1.1494279735E+00   -1.1461344819E+00   -1.1428598100E+00   -1.1396037971E+00
   -1.1363662842E+00   -1.1331471140E+00   -1.1299461311E+00   -1.1267631817E+00
   -1.1235981140E+00   -1.1204507776E+00   -1.1173210240E+00   -1.1142087063E+00
   -1.1111136791E+00   -1.1080357987E+00   -1.1049749231E+00   -1.1019309117E+00
   -1.0989036256E+00   -1.0958929272E+00   -1.0928986806E+00   -1.0899207514E+00
   -1.0869590064E+00   -1.0840133142E+00   -1.0810835446E+00   -1.0781695687E+00
   -1.0752712593E+00   -1.0723884903E+00   -1.0695211372E+00   -1.0666690765E+00
   -1.0638321862E+00   -1.0610103457E+00   -1.0582034355E+00   -1.0554113374E+00
   -1.0526339345E+00   -1.0498711110E+00   -1.0471227525E+00   -1.0443887457E+00
   -1.0416689784E+00   -1.0389633397E+00   -1.0362717198E+00   -1.0335940100E+00
   -1.0309301028E+00   -1.0282798917E+00   -1.0256432714E+00   -1.0230201375E+00
   -1.0204103870E+00   -1.0178139175E+00   -1.0152306280E+00   -1.0126604185E+00
   -1.0101031897E+00   -1.0075588437E+00   -1.0050272832E+00   -1.0025084123E+00
   -1.0000021356E+00   -9.9750835903E-01   -9.9502698926E-01   -9.9255793395E-01
   -9.9010110163E-01   -9.8765640178E-01   -9.8522374475E-01   -9.8280304176E-01
   -9.8039420493E-01   -9.7799714722E-01   -9.7561178243E-01   -9.7323802523E-01
   -9.7087579108E-01   -9.6852499630E-01   -9.6618555798E-01   -9.6385739403E-01
   -9.6154042315E-01   -9.5923456481E-01   -9.5693973926E-01   -9.5465586751E-01
   -9.5238287130E-01   -9.5012067316E-01   -9.4786919631E-01   -9.4562836472E-01
   -9.4339810307E-01   -9.4117833675E-01   -9.3896899185E-01   -9.3676999515E-01
   -9.3458127411E-01   -9.3240275689E-01   -9.3023437228E-01   -9.2807604978E-01
   -9.2592771949E-01   -9.2378931219E-01   -9.2166075928E-01   -9.1954199282E-01
   -9.1743294545E-01   -9.1533355047E-01   -9.1324374175E-01   -9.1116345379E-01
   -9.0909262168E-01   -9.0703118109E-01   -9.0497906827E-01   -9.0293622006E-01
   -9.0090257387E-01   -8.9887806765E-01   -8.9686263993E-01   -8.9485622978E-01
   -8.9285877681E-01   -8.9087022118E-01   -8.8889050357E-01   -8.8691956519E-01
   -8.8495734778E-01   -8.8300379357E-01   -8.8105884533E-01   -8.7912244631E-01
   -8.7719454027E-01   -8.7527507146E-01   -8.7336398460E-01   -8.7146122492E-01
   -8.6956673811E-01   -8.6768047033E-01   -8.6580236822E-01   -8.6393237885E-01
   -8.6207044980E-01   -8.6021652904E-01   -8.5837056502E-01   -8.5653250664E-01
   -8.5470230321E-01   -8.5287990449E-01   -8.5106526066E-01   -8.4925832234E-01
   -8.4745904053E-01   -8.4566736669E-01   -8.4388325266E-01   -8.4210665069E-01
   -8.4033751345E-01   -8.3857579398E-01   -8.3682144572E-01   -8.3507442252E-01
   -8.3333467859E-01   -8.3160216853E-01   -8.2987684731E-01   -8.2815867029E-01
   -8.2644759318E-01   -8.2474357207E-01   -8.2304656341E-01   -8.2135652398E-01
   -8.1967341096E-01   -8.1799718184E-01   -8.1632779448E-01   -8.1466520708E-01
   -8.1300937818E-01   -8.1136026665E-01   -8.0971783169E-01   -8.0808203284E-01
   -8.0645282996E-01   -8.0483018325E-01   -8.0321405320E-01   -8.0160440063E-01
   -8.0000118669E-01   -7.9840437281E-01   -7.9681392075E-01   -7.9522979257E-01
   -7.9365195063E-01   -7.9208035757E-01   -7.9051497636E-01   -7.8895577023E-01
   -7.8740270272E-01   -7.8585573765E-01   -7.8431483912E-01   -7.8277997152E-01
   -7.8125109951E-01   -7.7972818802E-01   -7.7821120228E-01   -7.7670010775E-01
   -7.7519487019E-01   -7.7369545561E-01   -7.7220183029E-01   -7.7071396077E-01
   -7.6923181383E-01   -7.6775535653E-01   -7.6628455617E-01   -7.6481938030E-01
   -7.6335979671E-01   -7.6190577345E-01   -7.6045727882E-01   -7.5901428133E-01
   -7.5757674976E-01   -7.5614465309E-01   -7.5471796059E-01   -7.5329664170E-01
   -7.5188066613E-01   -7.5047000380E-01   -7.4906462486E-01   -7.4766449970E-01
   -7.4626959889E-01   -7.4487989326E-01   -7.4349535383E-01   -7.4211595186E-01
   -7.4074165879E-01   -7.3937244631E-01   -7.3800828628E-01   -7.3664915080E-01
   -7.3529501215E-01   -7.3394584283E-01   -7.3260161554E-01   -7.3126230317E-01
   -7.2992787882E-01   -7.2859831577E-01   -7.2727358751E-01   -7.2595366771E-01
   -7.2463853025E-01   -7.2332814917E-01   -7.2202249873E-01   -7.2072155334E-01
   -7.1942528763E-01   -7.1813367639E-01   -7.1684669459E-01   -7.1556431739E-01
   -7.1428652013E-01   -7.1301327830E-01   -7.1174456760E-01   -7.1048036388E-01
   -7.0922064316E-01   -7.0796538165E-01   -7.0671455570E-01   -7.0546814185E-01
   -7.0422611679E-01   -7.0298845739E-01   -7.0175514067E-01   -7.0052614381E-01
   -6.9930144416E-01   -6.9808101921E-01   -6.9686484663E-01   -6.9565290422E-01
   -6.9444516997E-01   -6.9324162198E-01   -6.9204223853E-01   -6.9084699804E-01
   -6.8965587908E-01   -6.8846886038E-01   -6.8728592078E-01   -6.8610703932E-01
   -6.8493219513E-01   -6.8376136752E-01   -6.8259453592E-01   -6.8143167991E-01
   -6.8027277920E-01   -6.7911781365E-01   -6.7796676326E-01   -6.7681960814E-01
   -6.7567632855E-01   -6.7453690490E-01   -6.7340131770E-01   -6.7226954762E-01
   -6.7114157544E-01   -6.7001738206E-01   -6.6889694855E-01   -6.6778025606E-01
   -6.6666728589E-01   -6.6555801947E-01   -6.6445243832E-01   -6.6335052413E-01
   -6.6225225867E-01   -6.6115762385E-01   -6.6006660170E-01   -6.5897917436E-01
   -6.5789532410E-01   -6.5681503329E-01   -6.5573828443E-01   -6.5466506013E-01
   -6.5359534312E-01   -6.5252911621E-01   -6.5146636238E-01   -6.5040706466E-01
   -6.4935120623E-01   -6.4829877037E-01   -6.4724974047E-01   -6.4620410001E-01
   -6.4516183260E-01   -6.4412292193E-01   -6.4308735183E-01   -6.4205510620E-01
   -6.4102616906E-01   -6.4000052453E-01   -6.3897815684E-01   -6.3795905029E-01
   -6.3694318932E-01   -6.3593055845E-01   -6.3492114228E-01   -6.3391492555E-01
   -6.3291189305E-01   -6.3191202971E-01   -6.3091532052E-01   -6.2992175058E-01
   -6.2893130508E-01   -6.2794396932E-01   -6.2695972867E-01   -6.2597856859E-01
   -6.2500047464E-01   -6.2402543248E-01   -6.2305342785E-01   -6.2208444657E-01
   -6.2111847456E-01   -6.2015549782E-01   -6.1919550245E-01   -6.1823847461E-01