
     Program PWSCF v.6.1 starts on 26May2017 at 16:13: 5 

     This program is part of the open-source Quantum ESPRESSO suite
     for quantum simulation of materials; please cite
         "P. Giannozzi et al., J. Phys.:Condens. Matter 21 395502 (2009);
          URL http://www.quantum-espresso.org", 
     in publications or presentations arising from this work. More details at
     http://www.quantum-espresso.org/quote

     Parallel version (MPI & OpenMP), running on       1 processor cores
     Number of MPI processes:                 1
     Threads/MPI process:                     1
     Waiting for input...
     Reading input from standard input

     Current dimensions of program PWSCF are:
     Max number of different atomic species (ntypx) = 10
     Max number of k-points (npk) =  40000
     Max angular momentum in pseudopotentials (lmaxx) =  3
               file Zn.pbe-mt_fhi.UPF: wavefunction(s)  4p 4f renormalized

     gamma-point specific algorithms are used
     Message from routine setup:
     the system is metallic, specify occupations

     Subspace diagonalization in iterative solution of the eigenvalue problem:
     a serial algorithm will be used


     G-vector sticks info
     --------------------
     sticks:   dense  smooth     PW     G-vecs:    dense   smooth      PW
     Sum        9809    9809   2449               732287   732287   91623



     bravais-lattice index     =            1
     lattice parameter (alat)  =      22.6767  a.u.
     unit-cell volume          =   11661.1222 (a.u.)^3
     number of atoms/cell      =            2
     number of atomic types    =            1
     number of electrons       =        23.00 (up:  12.00, down:  11.00)
     number of Kohn-Sham states=           14
     kinetic-energy cutoff     =      60.0000  Ry
     charge density cutoff     =     240.0000  Ry
     convergence threshold     =      1.0E-08
     mixing beta               =       0.7000
     number of iterations used =            8  plain     mixing
     Exchange-correlation      = PBE ( 1  4  3  4 0 0)

     celldm(1)=  22.676714  celldm(2)=   0.000000  celldm(3)=   0.000000
     celldm(4)=   0.000000  celldm(5)=   0.000000  celldm(6)=   0.000000

     crystal axes: (cart. coord. in units of alat)
               a(1) = (   1.000000   0.000000   0.000000 )  
               a(2) = (   0.000000   1.000000   0.000000 )  
               a(3) = (   0.000000   0.000000   1.000000 )  

     reciprocal axes: (cart. coord. in units 2 pi/alat)
               b(1) = (  1.000000  0.000000  0.000000 )  
               b(2) = (  0.000000  1.000000  0.000000 )  
               b(3) = (  0.000000  0.000000  1.000000 )  


     PseudoPot. # 1 for Zn read from file:
     /home/matt/Programs/epcdft_merge/pseudo/Zn.pbe-mt_fhi.UPF
     MD5 check sum: 5596c9f2b89b9f7367257e7ea958b26e
     Pseudo is Norm-conserving, Zval = 12.0
     Generated using FHI98PP, converted with fhi2upf.x v.5.0.2
     Using radial grid of  527 points,  3 beta functions with: 
                l(1) =   1
                l(2) =   2
                l(3) =   3

     atomic species   valence    mass     pseudopotential
        Zn            12.00    65.39000     Zn( 1.00)

     Starting magnetic structure 
     atomic species   magnetization
        Zn           0.000

     No symmetry found



   Cartesian axes

     site n.     atom                  positions (alat units)
         1           Zn  tau(   1) = (   0.0000000   0.0000000   0.0000000  )
         2           Zn  tau(   2) = (   0.4166667   0.0000000   0.0000000  )

     number of k points=     1
                       cart. coord. in units 2pi/alat
        k(    1) = (   0.0000000   0.0000000   0.0000000), wk =   1.0000000

     Dense  grid:   366144 G-vectors     FFT dimensions: ( 120, 120, 120)

     Estimated max dynamical RAM per process >     532.39MB
     Generating pointlists ...
     new r_m :   0.1719 (alat units)  3.8976 (a.u.) for type    1

     Initial potential from superposition of free atoms
     Check: negative starting charge=(component1):   -0.000505
     Check: negative starting charge=(component2):   -0.000505

     starting charge   23.99975, renormalised to   23.00000

     negative rho (up, down):  4.836E-04 4.836E-04
     Starting wfc are   32 randomized atomic wfcs

     total cpu time spent up to now is        8.7 secs

     per-process dynamical memory:   465.3 Mb

     Self-consistent Calculation

     iteration #  1     ecut=    60.00 Ry     beta= 0.70
     Davidson diagonalization with overlap
     ethr =  1.00E-02,  avg # of iterations =  5.0

     negative rho (up, down):  6.783E-05 7.541E-05

     total cpu time spent up to now is       18.0 secs

     total energy              =    -219.17484020 Ry
     Harris-Foulkes estimate   =    -220.94346580 Ry
     estimated scf accuracy    <       1.44781962 Ry

     total magnetization       =     1.00 Bohr mag/cell
     absolute magnetization    =     1.00 Bohr mag/cell

     iteration #  2     ecut=    60.00 Ry     beta= 0.70
     Davidson diagonalization with overlap
     ethr =  6.29E-03,  avg # of iterations =  2.5

     negative rho (up, down):  2.860E-05 3.345E-05

     total cpu time spent up to now is       26.0 secs

     total energy              =    -219.71543305 Ry
     Harris-Foulkes estimate   =    -220.20674219 Ry
     estimated scf accuracy    <       1.61348608 Ry

     total magnetization       =     1.00 Bohr mag/cell
     absolute magnetization    =     1.01 Bohr mag/cell

     iteration #  3     ecut=    60.00 Ry     beta= 0.70
     Davidson diagonalization with overlap
     ethr =  6.29E-03,  avg # of iterations =  2.0

     negative rho (up, down):  3.194E-06 3.717E-06

     total cpu time spent up to now is       33.4 secs

     total energy              =    -220.12632073 Ry
     Harris-Foulkes estimate   =    -220.10478027 Ry
     estimated scf accuracy    <       0.01784610 Ry

     total magnetization       =     1.00 Bohr mag/cell
     absolute magnetization    =     1.05 Bohr mag/cell

     iteration #  4     ecut=    60.00 Ry     beta= 0.70
     Davidson diagonalization with overlap
     ethr =  7.76E-05,  avg # of iterations =  3.0

     negative rho (up, down):  9.722E-09 1.150E-08

     total cpu time spent up to now is       41.8 secs

     total energy              =    -220.13858761 Ry
     Harris-Foulkes estimate   =    -220.12985028 Ry
     estimated scf accuracy    <       0.00202174 Ry

     total magnetization       =     1.00 Bohr mag/cell
     absolute magnetization    =     1.03 Bohr mag/cell

     iteration #  5     ecut=    60.00 Ry     beta= 0.70
     Davidson diagonalization with overlap
     ethr =  8.79E-06,  avg # of iterations =  2.0

     total cpu time spent up to now is       49.9 secs

     total energy              =    -220.14027485 Ry
     Harris-Foulkes estimate   =    -220.13914772 Ry
     estimated scf accuracy    <       0.00044090 Ry

     total magnetization       =     1.00 Bohr mag/cell
     absolute magnetization    =     1.02 Bohr mag/cell

     iteration #  6     ecut=    60.00 Ry     beta= 0.70
     Davidson diagonalization with overlap
     ethr =  1.92E-06,  avg # of iterations =  6.5

     negative rho (up, down):  0.000E+00 4.646E-08

     total cpu time spent up to now is       58.7 secs

     total energy              =    -220.14108923 Ry
     Harris-Foulkes estimate   =    -220.14041953 Ry
     estimated scf accuracy    <       0.00007354 Ry

     total magnetization       =     1.00 Bohr mag/cell
     absolute magnetization    =     1.02 Bohr mag/cell

     iteration #  7     ecut=    60.00 Ry     beta= 0.70
     Davidson diagonalization with overlap
     ethr =  3.20E-07,  avg # of iterations =  3.0

     negative rho (up, down):  0.000E+00 4.085E-08

     total cpu time spent up to now is       66.9 secs

     total energy              =    -220.14166245 Ry
     Harris-Foulkes estimate   =    -220.14110592 Ry
     estimated scf accuracy    <       0.00001129 Ry

     total magnetization       =     1.00 Bohr mag/cell
     absolute magnetization    =     1.02 Bohr mag/cell

     iteration #  8     ecut=    60.00 Ry     beta= 0.70
     Davidson diagonalization with overlap
     ethr =  4.91E-08,  avg # of iterations =  2.5

     negative rho (up, down):  0.000E+00 1.761E-08

     total cpu time spent up to now is       74.8 secs

     total energy              =    -220.14235696 Ry
     Harris-Foulkes estimate   =    -220.14166397 Ry
     estimated scf accuracy    <       0.00000295 Ry

     total magnetization       =     1.00 Bohr mag/cell
     absolute magnetization    =     1.02 Bohr mag/cell

     iteration #  9     ecut=    60.00 Ry     beta= 0.70
     Davidson diagonalization with overlap
     ethr =  1.28E-08,  avg # of iterations =  2.0

     negative rho (up, down):  0.000E+00 1.010E-08

     total cpu time spent up to now is       82.6 secs

     total energy              =    -220.14260010 Ry
     Harris-Foulkes estimate   =    -220.14235732 Ry
     estimated scf accuracy    <       0.00000028 Ry

     total magnetization       =     1.00 Bohr mag/cell
     absolute magnetization    =     1.03 Bohr mag/cell

     iteration # 10     ecut=    60.00 Ry     beta= 0.70
     Davidson diagonalization with overlap
     ethr =  1.21E-09,  avg # of iterations =  3.0

     total cpu time spent up to now is       90.4 secs

     total energy              =    -220.14270725 Ry
     Harris-Foulkes estimate   =    -220.14260014 Ry
     estimated scf accuracy    <       0.00000007 Ry

     total magnetization       =     1.00 Bohr mag/cell
     absolute magnetization    =     1.03 Bohr mag/cell

     iteration # 11     ecut=    60.00 Ry     beta= 0.70
     Davidson diagonalization with overlap
     ethr =  3.20E-10,  avg # of iterations =  2.0

     total cpu time spent up to now is       98.2 secs

     total energy              =    -220.14281457 Ry
     Harris-Foulkes estimate   =    -220.14270726 Ry
     estimated scf accuracy    <       0.00000002 Ry

     total magnetization       =     1.00 Bohr mag/cell
     absolute magnetization    =     1.03 Bohr mag/cell

     iteration # 12     ecut=    60.00 Ry     beta= 0.70
     Davidson diagonalization with overlap
     ethr =  7.12E-11,  avg # of iterations =  2.5
       I D(charge)   A(charge)     Val=A-D      Target              Old              New
       1 0.101E+01   0.848E-02  -0.100E+01  -0.100E+01   0.32067900E+00   0.31973419E+00
     CDFT charge error:     0.35136653E-02

     Magnetic moment per site:
     atom:    1    charge:   11.8392    magn:    0.0057    constr:    0.0000
     atom:    2    charge:   10.9463    magn:    0.9494    constr:    0.0000

     total cpu time spent up to now is      108.2 secs

 ------ SPIN UP ------------


          k = 0.0000 0.0000 0.0000     band energies (ev):

   -14.1000 -14.1000 -14.0988 -14.0819 -14.0736 -11.8656 -11.8650 -11.8650
   -11.8574 -11.8571 -10.0859  -6.6696  -4.9997  -4.9950

 ------ SPIN DOWN ----------


          k = 0.0000 0.0000 0.0000     band energies (ev):

   -14.0994 -14.0994 -14.0978 -14.0818 -14.0735 -11.6150 -11.6150 -11.6142
   -11.6072 -11.6056 -10.0794  -5.5005  -4.9910  -4.9910

     highest occupied, lowest unoccupied level (ev):    -6.6696   -5.5005

     total energy              =    -220.14281459 Ry
     Harris-Foulkes estimate   =    -220.14281458 Ry
     estimated scf accuracy    <          3.2E-10 Ry

     total magnetization       =     1.00 Bohr mag/cell
     absolute magnetization    =     1.03 Bohr mag/cell

     iteration #  1     ecut=    60.00 Ry     beta= 0.70
     Davidson diagonalization with overlap
     ethr =  7.12E-11,  avg # of iterations =  4.5

     total cpu time spent up to now is      116.2 secs

     total energy              =    -220.14291528 Ry
     Harris-Foulkes estimate   =    -220.14281480 Ry
     estimated scf accuracy    <       0.00000003 Ry

     total magnetization       =     1.00 Bohr mag/cell
     absolute magnetization    =     1.03 Bohr mag/cell

     iteration #  2     ecut=    60.00 Ry     beta= 0.70
     Davidson diagonalization with overlap
     ethr =  1.26E-10,  avg # of iterations =  2.0
       I D(charge)   A(charge)     Val=A-D      Target              Old              New
       1 0.101E+01   0.867E-02  -0.100E+01  -0.100E+01   0.31973419E+00   0.31261538E+00
     CDFT charge error:     0.31019715E-02

     Magnetic moment per site:
     atom:    1    charge:   11.8391    magn:    0.0056    constr:    0.0000
     atom:    2    charge:   10.9465    magn:    0.9496    constr:    0.0000

     total cpu time spent up to now is      125.7 secs

 ------ SPIN UP ------------


          k = 0.0000 0.0000 0.0000     band energies (ev):

   -14.0881 -14.0881 -14.0869 -14.0700 -14.0618 -11.8769 -11.8763 -11.8763
   -11.8687 -11.8684 -10.0738  -6.6813  -4.9885  -4.9829

 ------ SPIN DOWN ----------


          k = 0.0000 0.0000 0.0000     band energies (ev):

   -14.0876 -14.0875 -14.0859 -14.0699 -14.0617 -11.6262 -11.6262 -11.6254
   -11.6184 -11.6168 -10.0674  -5.5106  -4.9790  -4.9790

     highest occupied, lowest unoccupied level (ev):    -6.6813   -5.5106

     total energy              =    -220.14291604 Ry
     Harris-Foulkes estimate   =    -220.14291529 Ry
     estimated scf accuracy    <          2.6E-09 Ry

     total magnetization       =     1.00 Bohr mag/cell
     absolute magnetization    =     1.03 Bohr mag/cell

     iteration #  1     ecut=    60.00 Ry     beta= 0.70
     Davidson diagonalization with overlap
     ethr =  1.26E-10,  avg # of iterations =  5.5

     total cpu time spent up to now is      134.7 secs

     total energy              =    -220.14357824 Ry
     Harris-Foulkes estimate   =    -220.14292671 Ry
     estimated scf accuracy    <       0.00000132 Ry

     total magnetization       =     1.00 Bohr mag/cell
     absolute magnetization    =     1.03 Bohr mag/cell

     iteration #  2     ecut=    60.00 Ry     beta= 0.70
     Davidson diagonalization with overlap
     ethr =  5.74E-09,  avg # of iterations =  2.0

     total cpu time spent up to now is      142.1 secs

     total energy              =    -220.14373900 Ry
     Harris-Foulkes estimate   =    -220.14357842 Ry
     estimated scf accuracy    <       0.00000012 Ry

     total magnetization       =     1.00 Bohr mag/cell
     absolute magnetization    =     1.03 Bohr mag/cell

     iteration #  3     ecut=    60.00 Ry     beta= 0.70
     Davidson diagonalization with overlap
     ethr =  5.40E-10,  avg # of iterations =  2.0

     total cpu time spent up to now is      150.3 secs

     total energy              =    -220.14379168 Ry
     Harris-Foulkes estimate   =    -220.14373904 Ry
     estimated scf accuracy    <       0.00000003 Ry

     total magnetization       =     1.00 Bohr mag/cell
     absolute magnetization    =     1.03 Bohr mag/cell

     iteration #  4     ecut=    60.00 Ry     beta= 0.70
     Davidson diagonalization with overlap
     ethr =  1.14E-10,  avg # of iterations =  2.5
       I D(charge)   A(charge)     Val=A-D      Target              Old              New
       1 0.101E+01   0.997E-02  -0.100E+01  -0.100E+01   0.31261538E+00   0.31157721E+00
     CDFT charge error:     0.39479686E-03

     Magnetic moment per site:
     atom:    1    charge:   11.8381    magn:    0.0047    constr:    0.0000
     atom:    2    charge:   10.9479    magn:    0.9510    constr:    0.0000

     total cpu time spent up to now is      159.8 secs

 ------ SPIN UP ------------


          k = 0.0000 0.0000 0.0000     band energies (ev):

   -13.9983 -13.9983 -13.9972 -13.9800 -13.9718 -11.9628 -11.9622 -11.9622
   -11.9546 -11.9543  -9.9830  -6.7688  -4.9038  -4.8920

 ------ SPIN DOWN ----------


          k = 0.0000 0.0000 0.0000     band energies (ev):

   -13.9978 -13.9978 -13.9963 -13.9799 -13.9717 -11.7118 -11.7118 -11.7110
   -11.7039 -11.7024  -9.9775  -5.5885  -4.8884  -4.8884

     highest occupied, lowest unoccupied level (ev):    -6.7688   -5.5885

     total energy              =    -220.14379173 Ry
     Harris-Foulkes estimate   =    -220.14379169 Ry
     estimated scf accuracy    <          3.5E-09 Ry

     total magnetization       =     1.00 Bohr mag/cell
     absolute magnetization    =     1.03 Bohr mag/cell

     iteration #  1     ecut=    60.00 Ry     beta= 0.70
     Davidson diagonalization with overlap
     ethr =  1.14E-10,  avg # of iterations =  4.0

     total cpu time spent up to now is      167.6 secs

     total energy              =    -220.14388159 Ry
     Harris-Foulkes estimate   =    -220.14379192 Ry
     estimated scf accuracy    <       0.00000002 Ry

     total magnetization       =     1.00 Bohr mag/cell
     absolute magnetization    =     1.03 Bohr mag/cell

     iteration #  2     ecut=    60.00 Ry     beta= 0.70
     Davidson diagonalization with overlap
     ethr =  1.09E-10,  avg # of iterations =  2.5
       I D(charge)   A(charge)     Val=A-D      Target              Old              New
       1 0.101E+01   0.101E-01  -0.100E+01  -0.100E+01   0.31157721E+00   0.31143497E+00
     CDFT charge error:     0.47575768E-04

     Magnetic moment per site:
     atom:    1    charge:   11.8380    magn:    0.0047    constr:    0.0000
     atom:    2    charge:   10.9481    magn:    0.9511    constr:    0.0000

     total cpu time spent up to now is      177.3 secs

 ------ SPIN UP ------------


          k = 0.0000 0.0000 0.0000     band energies (ev):

   -13.9853 -13.9853 -13.9842 -13.9670 -13.9587 -11.9754 -11.9748 -11.9748
   -11.9671 -11.9668  -9.9697  -6.7818  -4.8914  -4.8786

 ------ SPIN DOWN ----------


          k = 0.0000 0.0000 0.0000     band energies (ev):

   -13.9848 -13.9848 -13.9833 -13.9669 -13.9586 -11.7243 -11.7243 -11.7235
   -11.7164 -11.7149  -9.9642  -5.6004  -4.8751  -4.8751

     highest occupied, lowest unoccupied level (ev):    -6.7818   -5.6004

     total energy              =    -220.14388161 Ry
     Harris-Foulkes estimate   =    -220.14388159 Ry
     estimated scf accuracy    <          3.2E-09 Ry

     total magnetization       =     1.00 Bohr mag/cell
     absolute magnetization    =     1.03 Bohr mag/cell

     iteration #  1     ecut=    60.00 Ry     beta= 0.70
     Davidson diagonalization with overlap
     ethr =  1.09E-10,  avg # of iterations =  2.0
       I D(charge)   A(charge)     Val=A-D      Target              Str
       1 0.101E+01   0.102E-01  -0.100E+01  -0.100E+01   0.31143497E+00
     CDFT charge error:    -0.17784826E-05

     Magnetic moment per site:
     atom:    1    charge:   11.8379    magn:    0.0046    constr:    0.0000
     atom:    2    charge:   10.9481    magn:    0.9512    constr:    0.0000

     total cpu time spent up to now is      186.5 secs

     End of self-consistent calculation

 ------ SPIN UP ------------


          k = 0.0000 0.0000 0.0000 ( 45812 PWs)   bands (ev):

   -13.9834 -13.9834 -13.9823 -13.9650 -13.9568 -11.9773 -11.9767 -11.9767
   -11.9691 -11.9688  -9.9677  -6.7837  -4.8896  -4.8767

 ------ SPIN DOWN ----------


          k = 0.0000 0.0000 0.0000 ( 45812 PWs)   bands (ev):

   -13.9829 -13.9829 -13.9814 -13.9649 -13.9567 -11.7262 -11.7262 -11.7254
   -11.7184 -11.7169  -9.9623  -5.6022  -4.8732  -4.8732

     highest occupied, lowest unoccupied level (ev):    -6.7837   -5.6022

!    total energy              =    -220.14392867 Ry
     Harris-Foulkes estimate   =    -220.14388161 Ry
     estimated scf accuracy    <          4.3E-09 Ry

     The total energy is the sum of the following terms:

     one-electron contribution =    -325.38824543 Ry
     hartree contribution      =     173.39576125 Ry
     xc contribution           =     -32.44985595 Ry
     ewald contribution        =     -35.70158909 Ry
     CDFT contribution         =       0.00000055 Ry

     total magnetization       =     1.00 Bohr mag/cell
     absolute magnetization    =     1.03 Bohr mag/cell

     convergence has been achieved in   1 iterations

     Writing output data file left.save

     init_run     :      8.44s CPU      8.63s WALL (       1 calls)
     electrons    :    176.21s CPU    177.84s WALL (       1 calls)

     Called by init_run:
     wfcinit      :      3.02s CPU      3.04s WALL (       1 calls)
     potinit      :      4.02s CPU      4.16s WALL (       1 calls)

     Called by electrons:
     c_bands      :     72.89s CPU     73.00s WALL (      21 calls)
     sum_band     :     19.37s CPU     19.38s WALL (      21 calls)
     v_of_rho     :     75.69s CPU     77.10s WALL (      22 calls)
     mix_rho      :      5.37s CPU      5.53s WALL (      21 calls)

     Called by c_bands:
     init_us_2    :      2.83s CPU      2.82s WALL (      86 calls)
     regterg      :     68.59s CPU     68.69s WALL (      42 calls)

     Called by sum_band:

     Called by *egterg:
     h_psi        :     64.74s CPU     64.85s WALL (     170 calls)
     g_psi        :      0.28s CPU      0.26s WALL (     126 calls)
     rdiaghg      :      0.08s CPU      0.07s WALL (     160 calls)

     Called by h_psi:
     h_psi:pot    :     64.36s CPU     64.41s WALL (     170 calls)
     h_psi:calbec :      1.68s CPU      1.68s WALL (     170 calls)
     vloc_psi     :     61.00s CPU     61.05s WALL (     170 calls)
     add_vuspsi   :      1.68s CPU      1.67s WALL (     170 calls)

     General routines
     calbec       :      1.68s CPU      1.68s WALL (     170 calls)
     fft          :     27.12s CPU     27.83s WALL (     583 calls)
     fftw         :     62.03s CPU     62.06s WALL (    1904 calls)

     Parallel routines
     fft_scatter  :     16.74s CPU     16.83s WALL (    2487 calls)

     PWSCF        :  3m 4.74s CPU     3m 6.59s WALL


   This run was terminated on:  16:16:12  26May2017            

=------------------------------------------------------------------------------=
   JOB DONE.
=------------------------------------------------------------------------------=
