
     Program PWSCF v.6.1 starts on 26May2017 at 16:16:12 

     This program is part of the open-source Quantum ESPRESSO suite
     for quantum simulation of materials; please cite
         "P. Giannozzi et al., J. Phys.:Condens. Matter 21 395502 (2009);
          URL http://www.quantum-espresso.org", 
     in publications or presentations arising from this work. More details at
     http://www.quantum-espresso.org/quote

     Parallel version (MPI & OpenMP), running on       1 processor cores
     Number of MPI processes:                 1
     Threads/MPI process:                     1
     Waiting for input...
     Reading input from standard input

     Current dimensions of program PWSCF are:
     Max number of different atomic species (ntypx) = 10
     Max number of k-points (npk) =  40000
     Max angular momentum in pseudopotentials (lmaxx) =  3
               file Zn.pbe-mt_fhi.UPF: wavefunction(s)  4p 4f renormalized

     gamma-point specific algorithms are used
     Message from routine setup:
     the system is metallic, specify occupations

     Subspace diagonalization in iterative solution of the eigenvalue problem:
     a serial algorithm will be used


     G-vector sticks info
     --------------------
     sticks:   dense  smooth     PW     G-vecs:    dense   smooth      PW
     Sum        9809    9809   2449               732287   732287   91623



     bravais-lattice index     =            1
     lattice parameter (alat)  =      22.6767  a.u.
     unit-cell volume          =   11661.1222 (a.u.)^3
     number of atoms/cell      =            2
     number of atomic types    =            1
     number of electrons       =        23.00 (up:  12.00, down:  11.00)
     number of Kohn-Sham states=           14
     kinetic-energy cutoff     =      60.0000  Ry
     charge density cutoff     =     240.0000  Ry
     convergence threshold     =      1.0E-08
     mixing beta               =       0.7000
     number of iterations used =            8  plain     mixing
     Exchange-correlation      = PBE ( 1  4  3  4 0 0)

     celldm(1)=  22.676714  celldm(2)=   0.000000  celldm(3)=   0.000000
     celldm(4)=   0.000000  celldm(5)=   0.000000  celldm(6)=   0.000000

     crystal axes: (cart. coord. in units of alat)
               a(1) = (   1.000000   0.000000   0.000000 )  
               a(2) = (   0.000000   1.000000   0.000000 )  
               a(3) = (   0.000000   0.000000   1.000000 )  

     reciprocal axes: (cart. coord. in units 2 pi/alat)
               b(1) = (  1.000000  0.000000  0.000000 )  
               b(2) = (  0.000000  1.000000  0.000000 )  
               b(3) = (  0.000000  0.000000  1.000000 )  


     PseudoPot. # 1 for Zn read from file:
     /home/matt/Programs/epcdft_merge/pseudo/Zn.pbe-mt_fhi.UPF
     MD5 check sum: 5596c9f2b89b9f7367257e7ea958b26e
     Pseudo is Norm-conserving, Zval = 12.0
     Generated using FHI98PP, converted with fhi2upf.x v.5.0.2
     Using radial grid of  527 points,  3 beta functions with: 
                l(1) =   1
                l(2) =   2
                l(3) =   3

     atomic species   valence    mass     pseudopotential
        Zn            12.00    65.39000     Zn( 1.00)

     Starting magnetic structure 
     atomic species   magnetization
        Zn           0.000

     No symmetry found



   Cartesian axes

     site n.     atom                  positions (alat units)
         1           Zn  tau(   1) = (   0.0000000   0.0000000   0.0000000  )
         2           Zn  tau(   2) = (   0.4166667   0.0000000   0.0000000  )

     number of k points=     1
                       cart. coord. in units 2pi/alat
        k(    1) = (   0.0000000   0.0000000   0.0000000), wk =   1.0000000

     Dense  grid:   366144 G-vectors     FFT dimensions: ( 120, 120, 120)

     Estimated max dynamical RAM per process >     532.39MB
     Generating pointlists ...
     new r_m :   0.1719 (alat units)  3.8976 (a.u.) for type    1

     Initial potential from superposition of free atoms
     Check: negative starting charge=(component1):   -0.000505
     Check: negative starting charge=(component2):   -0.000505

     starting charge   23.99975, renormalised to   23.00000

     negative rho (up, down):  4.836E-04 4.836E-04
     Starting wfc are   32 randomized atomic wfcs

     total cpu time spent up to now is        8.7 secs

     per-process dynamical memory:   465.3 Mb

     Self-consistent Calculation

     iteration #  1     ecut=    60.00 Ry     beta= 0.70
     Davidson diagonalization with overlap
     ethr =  1.00E-02,  avg # of iterations =  5.0

     negative rho (up, down):  6.721E-05 7.489E-05

     total cpu time spent up to now is       17.9 secs

     total energy              =    -219.17479210 Ry
     Harris-Foulkes estimate   =    -220.94347415 Ry
     estimated scf accuracy    <       1.44789150 Ry

     total magnetization       =     1.00 Bohr mag/cell
     absolute magnetization    =     1.00 Bohr mag/cell

     iteration #  2     ecut=    60.00 Ry     beta= 0.70
     Davidson diagonalization with overlap
     ethr =  6.30E-03,  avg # of iterations =  2.5

     negative rho (up, down):  2.837E-05 3.313E-05

     total cpu time spent up to now is       25.7 secs

     total energy              =    -219.71541626 Ry
     Harris-Foulkes estimate   =    -220.20682778 Ry
     estimated scf accuracy    <       1.61362650 Ry

     total magnetization       =     1.00 Bohr mag/cell
     absolute magnetization    =     1.01 Bohr mag/cell

     iteration #  3     ecut=    60.00 Ry     beta= 0.70
     Davidson diagonalization with overlap
     ethr =  6.30E-03,  avg # of iterations =  2.0

     negative rho (up, down):  3.143E-06 3.698E-06

     total cpu time spent up to now is       33.0 secs

     total energy              =    -220.12636696 Ry
     Harris-Foulkes estimate   =    -220.10480406 Ry
     estimated scf accuracy    <       0.01781955 Ry

     total magnetization       =     1.00 Bohr mag/cell
     absolute magnetization    =     1.05 Bohr mag/cell

     iteration #  4     ecut=    60.00 Ry     beta= 0.70
     Davidson diagonalization with overlap
     ethr =  7.75E-05,  avg # of iterations =  3.0

     negative rho (up, down):  9.089E-09 1.090E-08

     total cpu time spent up to now is       41.4 secs

     total energy              =    -220.13859613 Ry
     Harris-Foulkes estimate   =    -220.12985991 Ry
     estimated scf accuracy    <       0.00200034 Ry

     total magnetization       =     1.00 Bohr mag/cell
     absolute magnetization    =     1.03 Bohr mag/cell

     iteration #  5     ecut=    60.00 Ry     beta= 0.70
     Davidson diagonalization with overlap
     ethr =  8.70E-06,  avg # of iterations =  2.0

     total cpu time spent up to now is       49.5 secs

     total energy              =    -220.14027278 Ry
     Harris-Foulkes estimate   =    -220.13914969 Ry
     estimated scf accuracy    <       0.00041572 Ry

     total magnetization       =     1.00 Bohr mag/cell
     absolute magnetization    =     1.02 Bohr mag/cell

     iteration #  6     ecut=    60.00 Ry     beta= 0.70
     Davidson diagonalization with overlap
     ethr =  1.81E-06,  avg # of iterations =  2.0

     negative rho (up, down):  0.000E+00 4.869E-08

     total cpu time spent up to now is       57.6 secs

     total energy              =    -220.14111028 Ry
     Harris-Foulkes estimate   =    -220.14041518 Ry
     estimated scf accuracy    <       0.00007370 Ry

     total magnetization       =     1.00 Bohr mag/cell
     absolute magnetization    =     1.02 Bohr mag/cell

     iteration #  7     ecut=    60.00 Ry     beta= 0.70
     Davidson diagonalization with overlap
     ethr =  3.20E-07,  avg # of iterations =  2.5

     negative rho (up, down):  0.000E+00 3.780E-08

     total cpu time spent up to now is       65.5 secs

     total energy              =    -220.14168439 Ry
     Harris-Foulkes estimate   =    -220.14112662 Ry
     estimated scf accuracy    <       0.00001085 Ry

     total magnetization       =     1.00 Bohr mag/cell
     absolute magnetization    =     1.02 Bohr mag/cell

     iteration #  8     ecut=    60.00 Ry     beta= 0.70
     Davidson diagonalization with overlap
     ethr =  4.72E-08,  avg # of iterations =  2.5

     negative rho (up, down):  0.000E+00 2.044E-08

     total cpu time spent up to now is       73.3 secs

     total energy              =    -220.14235191 Ry
     Harris-Foulkes estimate   =    -220.14168620 Ry
     estimated scf accuracy    <       0.00000302 Ry

     total magnetization       =     1.00 Bohr mag/cell
     absolute magnetization    =     1.02 Bohr mag/cell

     iteration #  9     ecut=    60.00 Ry     beta= 0.70
     Davidson diagonalization with overlap
     ethr =  1.31E-08,  avg # of iterations =  2.5

     total cpu time spent up to now is       81.3 secs

     total energy              =    -220.14261128 Ry
     Harris-Foulkes estimate   =    -220.14235234 Ry
     estimated scf accuracy    <       0.00000027 Ry

     total magnetization       =     1.00 Bohr mag/cell
     absolute magnetization    =     1.03 Bohr mag/cell

     iteration # 10     ecut=    60.00 Ry     beta= 0.70
     Davidson diagonalization with overlap
     ethr =  1.19E-09,  avg # of iterations =  3.0

     total cpu time spent up to now is       89.2 secs

     total energy              =    -220.14273558 Ry
     Harris-Foulkes estimate   =    -220.14261132 Ry
     estimated scf accuracy    <       0.00000007 Ry

     total magnetization       =     1.00 Bohr mag/cell
     absolute magnetization    =     1.03 Bohr mag/cell

     iteration # 11     ecut=    60.00 Ry     beta= 0.70
     Davidson diagonalization with overlap
     ethr =  2.84E-10,  avg # of iterations =  2.0
       I D(charge)   A(charge)     Val=A-D      Target              Old              New
       1 0.101E+01   0.849E-02  -0.100E+01  -0.100E+01   0.32067900E+00   0.31993278E+00
     CDFT charge error:     0.34903124E-02

     Magnetic moment per site:
     atom:    1    charge:   10.9462    magn:    0.9496    constr:    0.0000
     atom:    2    charge:   11.8393    magn:    0.0055    constr:    0.0000

     total cpu time spent up to now is       98.7 secs

 ------ SPIN UP ------------


          k = 0.0000 0.0000 0.0000     band energies (ev):

   -14.0993 -14.0992 -14.0981 -14.0811 -14.0729 -11.8664 -11.8658 -11.8658
   -11.8582 -11.8578 -10.0853  -6.6703  -4.9994  -4.9946

 ------ SPIN DOWN ----------


          k = 0.0000 0.0000 0.0000     band energies (ev):

   -14.0987 -14.0987 -14.0971 -14.0811 -14.0728 -11.6157 -11.6157 -11.6148
   -11.6079 -11.6063 -10.0790  -5.5006  -4.9907  -4.9481

     highest occupied, lowest unoccupied level (ev):    -6.6703   -5.5006

     total energy              =    -220.14273580 Ry
     Harris-Foulkes estimate   =    -220.14273559 Ry
     estimated scf accuracy    <          8.6E-09 Ry

     total magnetization       =     1.00 Bohr mag/cell
     absolute magnetization    =     1.03 Bohr mag/cell

     iteration #  1     ecut=    60.00 Ry     beta= 0.70
     Davidson diagonalization with overlap
     ethr =  2.84E-10,  avg # of iterations =  3.0

     total cpu time spent up to now is      106.2 secs

     total energy              =    -220.14287604 Ry
     Harris-Foulkes estimate   =    -220.14273593 Ry
     estimated scf accuracy    <       0.00000005 Ry

     total magnetization       =     1.00 Bohr mag/cell
     absolute magnetization    =     1.03 Bohr mag/cell

     iteration #  2     ecut=    60.00 Ry     beta= 0.70
     Davidson diagonalization with overlap
     ethr =  2.06E-10,  avg # of iterations =  2.0
       I D(charge)   A(charge)     Val=A-D      Target              Old              New
       1 0.101E+01   0.863E-02  -0.100E+01  -0.100E+01   0.31993278E+00   0.31215083E+00
     CDFT charge error:     0.31849098E-02

     Magnetic moment per site:
     atom:    1    charge:   10.9464    magn:    0.9497    constr:    0.0000
     atom:    2    charge:   11.8391    magn:    0.0056    constr:    0.0000

     total cpu time spent up to now is      115.5 secs

 ------ SPIN UP ------------


          k = 0.0000 0.0000 0.0000     band energies (ev):

   -14.0908 -14.0908 -14.0896 -14.0726 -14.0644 -11.8746 -11.8739 -11.8739
   -11.8663 -11.8660 -10.0763  -6.6789  -4.9909  -4.9855

 ------ SPIN DOWN ----------


          k = 0.0000 0.0000 0.0000     band energies (ev):

   -14.0902 -14.0902 -14.0886 -14.0726 -14.0643 -11.6238 -11.6238 -11.6230
   -11.6160 -11.6144 -10.0700  -5.5083  -4.9815  -4.9407

     highest occupied, lowest unoccupied level (ev):    -6.6789   -5.5083

     total energy              =    -220.14287719 Ry
     Harris-Foulkes estimate   =    -220.14287605 Ry
     estimated scf accuracy    <          4.5E-09 Ry

     total magnetization       =     1.00 Bohr mag/cell
     absolute magnetization    =     1.03 Bohr mag/cell

     iteration #  1     ecut=    60.00 Ry     beta= 0.70
     Davidson diagonalization with overlap
     ethr =  2.06E-10,  avg # of iterations =  5.5

     total cpu time spent up to now is      124.1 secs

     total energy              =    -220.14360440 Ry
     Harris-Foulkes estimate   =    -220.14288992 Ry
     estimated scf accuracy    <       0.00000156 Ry

     total magnetization       =     1.00 Bohr mag/cell
     absolute magnetization    =     1.03 Bohr mag/cell

     iteration #  2     ecut=    60.00 Ry     beta= 0.70
     Davidson diagonalization with overlap
     ethr =  6.79E-09,  avg # of iterations =  2.0

     total cpu time spent up to now is      131.5 secs

     total energy              =    -220.14378085 Ry
     Harris-Foulkes estimate   =    -220.14360462 Ry
     estimated scf accuracy    <       0.00000015 Ry

     total magnetization       =     1.00 Bohr mag/cell
     absolute magnetization    =     1.03 Bohr mag/cell

     iteration #  3     ecut=    60.00 Ry     beta= 0.70
     Davidson diagonalization with overlap
     ethr =  6.59E-10,  avg # of iterations =  2.0

     total cpu time spent up to now is      139.5 secs

     total energy              =    -220.14383741 Ry
     Harris-Foulkes estimate   =    -220.14378090 Ry
     estimated scf accuracy    <       0.00000004 Ry

     total magnetization       =     1.00 Bohr mag/cell
     absolute magnetization    =     1.03 Bohr mag/cell

     iteration #  4     ecut=    60.00 Ry     beta= 0.70
     Davidson diagonalization with overlap
     ethr =  1.77E-10,  avg # of iterations =  2.0
       I D(charge)   A(charge)     Val=A-D      Target              Old              New
       1 0.101E+01   0.100E-01  -0.100E+01  -0.100E+01   0.31215083E+00   0.31152275E+00
     CDFT charge error:     0.23785733E-03

     Magnetic moment per site:
     atom:    1    charge:   10.9480    magn:    0.9511    constr:    0.0000
     atom:    2    charge:   11.8380    magn:    0.0047    constr:    0.0000

     total cpu time spent up to now is      148.8 secs

 ------ SPIN UP ------------


          k = 0.0000 0.0000 0.0000     band energies (ev):

   -13.9924 -13.9924 -13.9913 -13.9741 -13.9658 -11.9685 -11.9679 -11.9679
   -11.9603 -11.9600  -9.9770  -6.7746  -4.8982  -4.8860

 ------ SPIN DOWN ----------


          k = 0.0000 0.0000 0.0000     band energies (ev):

   -13.9919 -13.9919 -13.9904 -13.9740 -13.9657 -11.7175 -11.7175 -11.7167
   -11.7096 -11.7081  -9.9715  -5.5938  -4.8825  -4.8583

     highest occupied, lowest unoccupied level (ev):    -6.7746   -5.5938

     total energy              =    -220.14383746 Ry
     Harris-Foulkes estimate   =    -220.14383742 Ry
     estimated scf accuracy    <          4.9E-09 Ry

     total magnetization       =     1.00 Bohr mag/cell
     absolute magnetization    =     1.03 Bohr mag/cell

     iteration #  1     ecut=    60.00 Ry     beta= 0.70
     Davidson diagonalization with overlap
     ethr =  1.77E-10,  avg # of iterations =  3.0

     total cpu time spent up to now is      156.3 secs

     total energy              =    -220.14389733 Ry
     Harris-Foulkes estimate   =    -220.14383753 Ry
     estimated scf accuracy    <       0.00000001 Ry

     total magnetization       =     1.00 Bohr mag/cell
     absolute magnetization    =     1.03 Bohr mag/cell

     iteration #  2     ecut=    60.00 Ry     beta= 0.70
     Davidson diagonalization with overlap
     ethr =  5.58E-11,  avg # of iterations =  2.5
       I D(charge)   A(charge)     Val=A-D      Target              Old              New
       1 0.101E+01   0.101E-01  -0.100E+01  -0.100E+01   0.31152275E+00   0.31143289E+00
     CDFT charge error:     0.29771711E-04

     Magnetic moment per site:
     atom:    1    charge:   10.9481    magn:    0.9512    constr:    0.0000
     atom:    2    charge:   11.8379    magn:    0.0046    constr:    0.0000

     total cpu time spent up to now is      166.2 secs

 ------ SPIN UP ------------


          k = 0.0000 0.0000 0.0000     band energies (ev):

   -13.9846 -13.9846 -13.9835 -13.9662 -13.9580 -11.9760 -11.9754 -11.9754
   -11.9678 -11.9675  -9.9690  -6.7825  -4.8907  -4.8779

 ------ SPIN DOWN ----------


          k = 0.0000 0.0000 0.0000     band energies (ev):

   -13.9841 -13.9841 -13.9826 -13.9662 -13.9579 -11.7249 -11.7249 -11.7241
   -11.7171 -11.7156  -9.9635  -5.6010  -4.8744  -4.8514

     highest occupied, lowest unoccupied level (ev):    -6.7825   -5.6010

     total energy              =    -220.14389734 Ry
     Harris-Foulkes estimate   =    -220.14389733 Ry
     estimated scf accuracy    <          3.6E-09 Ry

     total magnetization       =     1.00 Bohr mag/cell
     absolute magnetization    =     1.03 Bohr mag/cell

     iteration #  1     ecut=    60.00 Ry     beta= 0.70
     Davidson diagonalization with overlap
     ethr =  5.58E-11,  avg # of iterations =  2.0
       I D(charge)   A(charge)     Val=A-D      Target              Str
       1 0.101E+01   0.102E-01  -0.100E+01  -0.100E+01   0.31143289E+00
     CDFT charge error:    -0.12947289E-05

     Magnetic moment per site:
     atom:    1    charge:   10.9481    magn:    0.9512    constr:    0.0000
     atom:    2    charge:   11.8379    magn:    0.0046    constr:    0.0000

     total cpu time spent up to now is      175.4 secs

     End of self-consistent calculation

 ------ SPIN UP ------------


          k = 0.0000 0.0000 0.0000 ( 45812 PWs)   bands (ev):

   -13.9834 -13.9834 -13.9823 -13.9650 -13.9568 -11.9772 -11.9767 -11.9767
   -11.9690 -11.9687  -9.9678  -6.7837  -4.8896  -4.8767

 ------ SPIN DOWN ----------


          k = 0.0000 0.0000 0.0000 ( 45812 PWs)   bands (ev):

   -13.9829 -13.9829 -13.9814 -13.9649 -13.9567 -11.7262 -11.7262 -11.7254
   -11.7183 -11.7168  -9.9623  -5.6021  -4.8732  -4.8504

     highest occupied, lowest unoccupied level (ev):    -6.7837   -5.6021

!    total energy              =    -220.14392867 Ry
     Harris-Foulkes estimate   =    -220.14389734 Ry
     estimated scf accuracy    <          4.1E-09 Ry

     The total energy is the sum of the following terms:

     one-electron contribution =    -325.38825325 Ry
     hartree contribution      =     173.39576960 Ry
     xc contribution           =     -32.44985633 Ry
     ewald contribution        =     -35.70158909 Ry
     CDFT contribution         =       0.00000040 Ry

     total magnetization       =     1.00 Bohr mag/cell
     absolute magnetization    =     1.03 Bohr mag/cell

     convergence has been achieved in   1 iterations

     Writing output data file right.save

     init_run     :      8.44s CPU      8.62s WALL (       1 calls)
     electrons    :    165.99s CPU    166.73s WALL (       1 calls)

     Called by init_run:
     wfcinit      :      3.01s CPU      3.03s WALL (       1 calls)
     potinit      :      4.03s CPU      4.17s WALL (       1 calls)

     Called by electrons:
     c_bands      :     67.82s CPU     67.92s WALL (      20 calls)
     sum_band     :     18.38s CPU     18.39s WALL (      20 calls)
     v_of_rho     :     72.22s CPU     72.88s WALL (      21 calls)
     mix_rho      :      4.81s CPU      4.87s WALL (      20 calls)

     Called by c_bands:
     init_us_2    :      2.68s CPU      2.69s WALL (      82 calls)
     regterg      :     63.75s CPU     63.82s WALL (      40 calls)

     Called by sum_band:

     Called by *egterg:
     h_psi        :     60.58s CPU     60.63s WALL (     148 calls)
     g_psi        :      0.24s CPU      0.24s WALL (     106 calls)
     rdiaghg      :      0.06s CPU      0.06s WALL (     138 calls)

     Called by h_psi:
     h_psi:pot    :     60.15s CPU     60.21s WALL (     148 calls)
     h_psi:calbec :      1.52s CPU      1.53s WALL (     148 calls)
     vloc_psi     :     57.09s CPU     57.14s WALL (     148 calls)
     add_vuspsi   :      1.54s CPU      1.54s WALL (     148 calls)

     General routines
     calbec       :      1.52s CPU      1.53s WALL (     148 calls)
     fft          :     26.05s CPU     26.27s WALL (     562 calls)
     fftw         :     58.04s CPU     58.19s WALL (    1790 calls)

     Parallel routines
     fft_scatter  :     15.77s CPU     15.87s WALL (    2352 calls)

     PWSCF        :  2m54.51s CPU     2m55.46s WALL


   This run was terminated on:  16:19: 7  26May2017            

=------------------------------------------------------------------------------=
   JOB DONE.
=------------------------------------------------------------------------------=
